
     Program PWSCF v.6.7MaX starts on  7May2021 at 16:45:20 

     This program is part of the open-source Quantum ESPRESSO suite
     for quantum simulation of materials; please cite
         "P. Giannozzi et al., J. Phys.:Condens. Matter 21 395502 (2009);
         "P. Giannozzi et al., J. Phys.:Condens. Matter 29 465901 (2017);
          URL http://www.quantum-espresso.org", 
     in publications or presentations arising from this work. More details at
     http://www.quantum-espresso.org/quote

     Parallel version (MPI), running on    10 processors

     MPI processes distributed on     1 nodes
     R & G space division:  proc/nbgrp/npool/nimage =      10
     Reading input from mos2_0_relax.in

     Current dimensions of program PWSCF are:
     Max number of different atomic species (ntypx) = 10
     Max number of k-points (npk) =  40000
     Max angular momentum in pseudopotentials (lmaxx) =  3

     Subspace diagonalization in iterative solution of the eigenvalue problem:
     one sub-group per band group will be used
     scalapack distributed-memory algorithm (size of sub-group:  3*  3 procs)

 
     Parallelization info
     --------------------
     sticks:   dense  smooth     PW     G-vecs:    dense   smooth      PW
     Min         159      80     22                24287     8584    1302
     Max         160      81     23                24296     8595    1315
     Sum        1597     805    223               242893    85889   13065
 


     bravais-lattice index     =            4
     lattice parameter (alat)  =       6.0170  a.u.
     unit-cell volume          =     888.7565 (a.u.)^3
     number of atoms/cell      =            3
     number of atomic types    =            2
     number of electrons       =        26.00
     number of Kohn-Sham states=           17
     kinetic-energy cutoff     =      80.0000  Ry
     charge density cutoff     =     640.0000  Ry
     scf convergence threshold =      1.0E-09
     mixing beta               =       0.7000
     number of iterations used =            8  local-TF  mixing
     energy convergence thresh.=      1.0E-05
     force convergence thresh. =      1.0E-04
     press convergence thresh. =      5.0E-01
     Exchange-correlation=  SLA  PW   PBX  PBC
                           (   1   4   3   4   0   0   0)
     nstep                     =           50


     celldm(1)=   6.017014  celldm(2)=   0.000000  celldm(3)=   4.710957
     celldm(4)=   0.000000  celldm(5)=   0.000000  celldm(6)=   0.000000

     crystal axes: (cart. coord. in units of alat)
               a(1) = (   1.000000   0.000000   0.000000 )  
               a(2) = (  -0.500000   0.866025   0.000000 )  
               a(3) = (   0.000000   0.000000   4.710957 )  

     reciprocal axes: (cart. coord. in units 2 pi/alat)
               b(1) = (  1.000000  0.577350  0.000000 )  
               b(2) = (  0.000000  1.154701  0.000000 )  
               b(3) = (  0.000000  0.000000  0.212271 )  


     PseudoPot. # 1 for Mo read from file:
     /home/melsa.ducut/scratch2/all_pbe_UPF/mo_pbe_v1.uspp.F.UPF
     MD5 check sum: 30c4dcd161f5d35cd49bb5239c51a633
     Pseudo is Ultrasoft + core correction, Zval = 14.0
     Generated by new atomic code, or converted to UPF format
     Using radial grid of  889 points,  6 beta functions with: 
                l(1) =   0
                l(2) =   0
                l(3) =   1
                l(4) =   1
                l(5) =   2
                l(6) =   2
     Q(r) pseudized with  6 coefficients,  rinner =    1.000   1.000   1.000
                                                       1.000   1.000

     PseudoPot. # 2 for S  read from file:
     /home/melsa.ducut/scratch2/all_pbe_UPF/s_pbe_v1.4.uspp.F.UPF
     MD5 check sum: 88d86576ff6df21479756cfb9bdac1df
     Pseudo is Ultrasoft + core correction, Zval =  6.0
     Generated by new atomic code, or converted to UPF format
     Using radial grid of  907 points,  6 beta functions with: 
                l(1) =   0
                l(2) =   0
                l(3) =   1
                l(4) =   1
                l(5) =   2
                l(6) =   2
     Q(r) pseudized with  8 coefficients,  rinner =    1.300   1.300   1.300
                                                       1.300   1.300

     atomic species   valence    mass     pseudopotential
        Mo            14.00    95.94000     Mo( 1.00)
        S              6.00    32.06600     S ( 1.00)

     Starting magnetic structure 
     atomic species   magnetization
        Mo           0.200
        S            0.000

      6 Sym. Ops. (no inversion) found


                                    s                        frac. trans.

      isym =  1     identity                                     

 cryst.   s( 1) = (     1          0          0      )
                  (     0          1          0      )
                  (     0          0          1      )

 cart.    s( 1) = (  1.0000000  0.0000000  0.0000000 )
                  (  0.0000000  1.0000000  0.0000000 )
                  (  0.0000000  0.0000000  1.0000000 )


      isym =  2     120 deg rotation - cryst. axis [0,0,1]       

 cryst.   s( 2) = (     0          1          0      )
                  (    -1         -1          0      )
                  (     0          0          1      )

 cart.    s( 2) = ( -0.5000000 -0.8660254  0.0000000 )
                  (  0.8660254 -0.5000000  0.0000000 )
                  (  0.0000000  0.0000000  1.0000000 )


      isym =  3     120 deg rotation - cryst. axis [0,0,-1]      

 cryst.   s( 3) = (    -1         -1          0      )
                  (     1          0          0      )
                  (     0          0          1      )

 cart.    s( 3) = ( -0.5000000  0.8660254  0.0000000 )
                  ( -0.8660254 -0.5000000  0.0000000 )
                  (  0.0000000  0.0000000  1.0000000 )


      isym =  4     inv. 180 deg rotation - cart. axis [1,0,0]   

 cryst.   s( 4) = (    -1          0          0      )
                  (     1          1          0      )
                  (     0          0          1      )

 cart.    s( 4) = ( -1.0000000  0.0000000  0.0000000 )
                  (  0.0000000  1.0000000  0.0000000 )
                  (  0.0000000  0.0000000  1.0000000 )


      isym =  5     inv. 180 deg rotation - cryst. axis [0,1,0]  

 cryst.   s( 5) = (     1          1          0      )
                  (     0         -1          0      )
                  (     0          0          1      )

 cart.    s( 5) = (  0.5000000  0.8660254  0.0000000 )
                  (  0.8660254 -0.5000000  0.0000000 )
                  (  0.0000000  0.0000000  1.0000000 )


      isym =  6     inv. 180 deg rotation - cryst. axis [1,1,0]  

 cryst.   s( 6) = (     0         -1          0      )
                  (    -1          0          0      )
                  (     0          0          1      )

 cart.    s( 6) = (  0.5000000 -0.8660254  0.0000000 )
                  ( -0.8660254 -0.5000000  0.0000000 )
                  (  0.0000000  0.0000000  1.0000000 )


     point group C_3v (3m)  
     there are  3 classes
     the character table:

       E     2C3   3s_v 
A_1    1.00  1.00  1.00
A_2    1.00  1.00 -1.00
E      2.00 -1.00  0.00

     the symmetry operations in each class and the name of the first element:

     E        1
          identity                                               
     2C3      2    3
          120 deg rotation - cryst. axis [0,0,1]                 
     3s_v     4    5    6
          inv. 180 deg rotation - cart. axis [1,0,0]             

   Cartesian axes

     site n.     atom                  positions (alat units)
         1           Mo  tau(   1) = (   0.0000000   0.0000000   2.2184070  )
         2           S   tau(   2) = (   0.4999999   0.2886752   2.7094637  )
         3           S   tau(   3) = (   0.4999999   0.2886752   1.7273507  )

   Crystallographic axes

     site n.     atom                  positions (cryst. coord.)
         1           Mo  tau(   1) = (  0.0000000  0.0000000  0.4709037  )
         2           S   tau(   2) = (  0.6666666  0.3333334  0.5751409  )
         3           S   tau(   3) = (  0.6666666  0.3333334  0.3666667  )

     number of k points=     8  Gaussian smearing, width (Ry)=  0.0100
                       cart. coord. in units 2pi/alat
        k(    1) = (   0.0000000   0.0000000   0.0000000), wk =   0.0204082
        k(    2) = (   0.0000000   0.1649572   0.0000000), wk =   0.1224490
        k(    3) = (   0.0000000   0.3299144   0.0000000), wk =   0.1224490
        k(    4) = (   0.0000000   0.4948717   0.0000000), wk =   0.1224490
        k(    5) = (   0.1428571   0.2474358   0.0000000), wk =   0.1224490
        k(    6) = (   0.1428571   0.4123930   0.0000000), wk =   0.2448980
        k(    7) = (   0.1428571   0.5773503   0.0000000), wk =   0.1224490
        k(    8) = (   0.2857143   0.4948717   0.0000000), wk =   0.1224490

                       cryst. coord.
        k(    1) = (   0.0000000   0.0000000   0.0000000), wk =   0.0204082
        k(    2) = (   0.0000000   0.1428571   0.0000000), wk =   0.1224490
        k(    3) = (   0.0000000   0.2857143   0.0000000), wk =   0.1224490
        k(    4) = (   0.0000000   0.4285714   0.0000000), wk =   0.1224490
        k(    5) = (   0.1428571   0.1428571   0.0000000), wk =   0.1224490
        k(    6) = (   0.1428571   0.2857143   0.0000000), wk =   0.2448980
        k(    7) = (   0.1428571   0.4285714   0.0000000), wk =   0.1224490
        k(    8) = (   0.2857143   0.2857143   0.0000000), wk =   0.1224490

     Dense  grid:   242893 G-vectors     FFT dimensions: (  50,  50, 240)

     Smooth grid:    85889 G-vectors     FFT dimensions: (  36,  36, 162)

     Dynamical RAM for                 wfc:       0.28 MB

     Dynamical RAM for     wfc (w. buffer):       4.73 MB

     Dynamical RAM for           str. fact:       0.74 MB

     Dynamical RAM for           local pot:       0.00 MB

     Dynamical RAM for          nlocal pot:       0.88 MB

     Dynamical RAM for                qrad:       8.12 MB

     Dynamical RAM for          rho,v,vnew:       4.97 MB

     Dynamical RAM for               rhoin:       1.66 MB

     Dynamical RAM for            rho*nmix:      11.86 MB

     Dynamical RAM for           G-vectors:       1.46 MB

     Dynamical RAM for          h,s,v(r/c):       0.01 MB

     Dynamical RAM for          <psi|beta>:       0.01 MB

     Dynamical RAM for                 psi:       0.56 MB

     Dynamical RAM for                hpsi:       0.56 MB

     Dynamical RAM for                spsi:       0.56 MB

     Dynamical RAM for      wfcinit/wfcrot:       0.70 MB

     Dynamical RAM for           addusdens:      70.05 MB

     Dynamical RAM for          addusforce:      70.80 MB

     Dynamical RAM for         addusstress:      75.05 MB

     Estimated static dynamical RAM per process >      38.28 MB

     Estimated max dynamical RAM per process >     113.33 MB

     Estimated total dynamical RAM >       1.11 GB
     Generating pointlists ...
     new r_m :   0.3126 (alat units)  1.8812 (a.u.) for type    1
     new r_m :   0.3126 (alat units)  1.8812 (a.u.) for type    2

     Initial potential from superposition of free atoms

     starting charge   25.99886, renormalised to   26.00000

     negative rho (up, down):  3.092E-05 2.001E-05
     Starting wfcs are   21 randomized atomic wfcs

     total cpu time spent up to now is        2.8 secs

     Self-consistent Calculation

     iteration #  1     ecut=    80.00 Ry     beta= 0.70
     Davidson diagonalization with overlap
     ethr =  1.00E-02,  avg # of iterations =  2.1

     Threshold (ethr) on eigenvalues was too large:
     Diagonalizing with lowered threshold

     Davidson diagonalization with overlap
     ethr =  5.09E-04,  avg # of iterations =  2.2

     negative rho (up, down):  1.983E-08 1.865E-08

     total cpu time spent up to now is        6.3 secs

     total energy              =    -187.72679423 Ry
     estimated scf accuracy    <       0.15495075 Ry

     total magnetization       =     0.00 Bohr mag/cell
     absolute magnetization    =     0.78 Bohr mag/cell

     iteration #  2     ecut=    80.00 Ry     beta= 0.70
     Davidson diagonalization with overlap
     ethr =  5.96E-04,  avg # of iterations =  1.0

     total cpu time spent up to now is        8.1 secs

     total energy              =    -187.72466356 Ry
     estimated scf accuracy    <       0.05721483 Ry

     total magnetization       =     0.00 Bohr mag/cell
     absolute magnetization    =     0.45 Bohr mag/cell

     iteration #  3     ecut=    80.00 Ry     beta= 0.70
     Davidson diagonalization with overlap
     ethr =  2.20E-04,  avg # of iterations =  2.0

     total cpu time spent up to now is       10.0 secs

     total energy              =    -187.73302843 Ry
     estimated scf accuracy    <       0.00576610 Ry

     total magnetization       =     0.00 Bohr mag/cell
     absolute magnetization    =     0.10 Bohr mag/cell

     iteration #  4     ecut=    80.00 Ry     beta= 0.70
     Davidson diagonalization with overlap
     ethr =  2.22E-05,  avg # of iterations =  3.1

     total cpu time spent up to now is       12.0 secs

     total energy              =    -187.73252550 Ry
     estimated scf accuracy    <       0.00244014 Ry

     total magnetization       =     0.00 Bohr mag/cell
     absolute magnetization    =     0.04 Bohr mag/cell

     iteration #  5     ecut=    80.00 Ry     beta= 0.70
     Davidson diagonalization with overlap
     ethr =  9.39E-06,  avg # of iterations =  2.2

     total cpu time spent up to now is       14.2 secs

     total energy              =    -187.73282026 Ry
     estimated scf accuracy    <       0.00067696 Ry

     total magnetization       =     0.00 Bohr mag/cell
     absolute magnetization    =     0.02 Bohr mag/cell

     iteration #  6     ecut=    80.00 Ry     beta= 0.70
     Davidson diagonalization with overlap
     ethr =  2.60E-06,  avg # of iterations =  2.2

     total cpu time spent up to now is       16.2 secs

     total energy              =    -187.73284397 Ry
     estimated scf accuracy    <       0.00021999 Ry

     total magnetization       =    -0.00 Bohr mag/cell
     absolute magnetization    =     0.00 Bohr mag/cell

     iteration #  7     ecut=    80.00 Ry     beta= 0.70
     Davidson diagonalization with overlap
     ethr =  8.46E-07,  avg # of iterations =  2.0

     negative rho (up, down):  1.283E-05 1.254E-05

     total cpu time spent up to now is       18.2 secs

     total energy              =    -187.73292873 Ry
     estimated scf accuracy    <       0.00004628 Ry

     total magnetization       =     0.00 Bohr mag/cell
     absolute magnetization    =     0.00 Bohr mag/cell

     iteration #  8     ecut=    80.00 Ry     beta= 0.70
     Davidson diagonalization with overlap
     ethr =  1.78E-07,  avg # of iterations =  1.9

     negative rho (up, down):  4.344E-05 4.353E-05

     total cpu time spent up to now is       20.5 secs

     total energy              =    -187.73296115 Ry
     estimated scf accuracy    <       0.00000542 Ry

     total magnetization       =    -0.00 Bohr mag/cell
     absolute magnetization    =     0.01 Bohr mag/cell

     iteration #  9     ecut=    80.00 Ry     beta= 0.70
     Davidson diagonalization with overlap
     ethr =  2.09E-08,  avg # of iterations =  4.1

     negative rho (up, down):  4.999E-05 4.999E-05

     total cpu time spent up to now is       22.9 secs

     total energy              =    -187.73296442 Ry
     estimated scf accuracy    <       0.00000049 Ry

     total magnetization       =     0.00 Bohr mag/cell
     absolute magnetization    =     0.00 Bohr mag/cell

     iteration # 10     ecut=    80.00 Ry     beta= 0.70
     Davidson diagonalization with overlap
     ethr =  1.89E-09,  avg # of iterations =  2.8

     negative rho (up, down):  5.214E-05 5.213E-05

     total cpu time spent up to now is       25.1 secs

     total energy              =    -187.73296453 Ry
     estimated scf accuracy    <       0.00000008 Ry

     total magnetization       =    -0.00 Bohr mag/cell
     absolute magnetization    =     0.00 Bohr mag/cell

     iteration # 11     ecut=    80.00 Ry     beta= 0.70
     Davidson diagonalization with overlap
     ethr =  2.92E-10,  avg # of iterations =  2.7

     negative rho (up, down):  5.030E-05 5.030E-05

     total cpu time spent up to now is       27.3 secs

     total energy              =    -187.73296455 Ry
     estimated scf accuracy    <          3.4E-09 Ry

     total magnetization       =    -0.00 Bohr mag/cell
     absolute magnetization    =     0.00 Bohr mag/cell

     iteration # 12     ecut=    80.00 Ry     beta= 0.70
     Davidson diagonalization with overlap
     ethr =  1.30E-11,  avg # of iterations =  4.3

     negative rho (up, down):  5.003E-05 5.003E-05
 
     Magnetic moment per site:
     atom:    1    charge:   10.7497    magn:    0.0000    constr:    0.0000
     atom:    2    charge:    4.1533    magn:   -0.0000    constr:    0.0000
     atom:    3    charge:    4.1533    magn:   -0.0000    constr:    0.0000

     total cpu time spent up to now is       29.5 secs

     End of self-consistent calculation

 ------ SPIN UP ------------


          k = 0.0000 0.0000 0.0000 ( 10755 PWs)   bands (ev):

   -60.2204 -34.3504 -34.1478 -34.1478 -13.3970 -12.0970  -4.9156  -1.9236
    -1.9236  -1.0926  -0.8220  -0.8220   0.6750   3.4322   3.4322   3.6782
     3.6782

     occupation numbers 
     1.0000   1.0000   1.0000   1.0000   1.0000   1.0000   1.0000   1.0000
     1.0000   1.0000   1.0000   1.0000   1.0000   0.0000   0.0000   0.0000
     0.0000

          k = 0.0000 0.1650 0.0000 ( 10801 PWs)   bands (ev):

   -60.2135 -34.3365 -34.2186 -34.1640 -13.1049 -11.9766  -4.5982  -2.5141
    -2.0376  -1.6214  -1.2462  -0.3843   0.4822   3.0758   3.2242   3.3781
     3.8933

     occupation numbers 
     1.0000   1.0000   1.0000   1.0000   1.0000   1.0000   1.0000   1.0000
     1.0000   1.0000   1.0000   1.0000   1.0000   0.0000   0.0000   0.0000
     0.0000

          k = 0.0000 0.3299 0.0000 ( 10749 PWs)   bands (ev):

   -60.1978 -34.3750 -34.3051 -34.2001 -12.3700 -11.6768  -4.3468  -3.1890
    -3.1486  -1.9639  -0.9173  -0.7786  -0.1944   2.8917   2.9470   3.7787
     4.5939

     occupation numbers 
     1.0000   1.0000   1.0000   1.0000   1.0000   1.0000   1.0000   1.0000
     1.0000   1.0000   1.0000   1.0000   1.0000   0.0000   0.0000   0.0000
     0.0000

          k = 0.0000 0.4949 0.0000 ( 10714 PWs)   bands (ev):

   -60.1852 -34.4976 -34.2798 -34.2288 -11.6560 -11.3974  -4.9517  -3.9660
    -3.3172  -2.4137  -1.1448  -0.3709  -0.0787   2.8887   3.3097   4.4488
     4.9353

     occupation numbers 
     1.0000   1.0000   1.0000   1.0000   1.0000   1.0000   1.0000   1.0000
     1.0000   1.0000   1.0000   1.0000   1.0000   0.0000   0.0000   0.0000
     0.0000

          k = 0.1429 0.2474 0.0000 ( 10779 PWs)   bands (ev):

   -60.2021 -34.3221 -34.3138 -34.2002 -12.5883 -11.7633  -4.2339  -3.0884
    -2.6574  -2.2413  -1.2735  -0.2815   0.0177   2.6741   3.1257   3.2227
     4.6132

     occupation numbers 
     1.0000   1.0000   1.0000   1.0000   1.0000   1.0000   1.0000   1.0000
     1.0000   1.0000   1.0000   1.0000   1.0000   0.0000   0.0000   0.0000
     0.0000

          k = 0.1429 0.4124 0.0000 ( 10757 PWs)   bands (ev):

   -60.1880 -34.4414 -34.2855 -34.2527 -11.8383 -11.4549  -4.5118  -3.7778
    -3.0861  -2.5485  -1.4240  -0.7830  -0.0329   2.8151   3.2309   3.8314
     5.0378

     occupation numbers 
     1.0000   1.0000   1.0000   1.0000   1.0000   1.0000   1.0000   1.0000
     1.0000   1.0000   1.0000   1.0000   1.0000   0.0000   0.0000   0.0000
     0.0000

          k = 0.1429 0.5774 0.0000 ( 10690 PWs)   bands (ev):

   -60.1817 -34.4931 -34.2766 -34.2728 -11.4463 -11.2967  -4.7792  -4.3092
    -3.2817  -2.4655  -1.4066  -1.1823   0.3198   2.8598   3.6192   4.3056
     4.9429

     occupation numbers 
     1.0000   1.0000   1.0000   1.0000   1.0000   1.0000   1.0000   1.0000
     1.0000   1.0000   1.0000   1.0000   1.0000   0.0000   0.0000   0.0000
     0.0000

          k = 0.2857 0.4949 0.0000 ( 10706 PWs)   bands (ev):

   -60.1801 -34.4465 -34.3435 -34.2698 -11.3634 -11.2396  -4.5457  -4.2455
    -3.0090  -2.6741  -2.3579  -1.2513   0.4406   2.5929   3.7853   3.9207
     5.4009

     occupation numbers 
     1.0000   1.0000   1.0000   1.0000   1.0000   1.0000   1.0000   1.0000
     1.0000   1.0000   1.0000   1.0000   1.0000   0.0000   0.0000   0.0000
     0.0000

 ------ SPIN DOWN ----------


          k = 0.0000 0.0000 0.0000 ( 10755 PWs)   bands (ev):

   -60.2204 -34.3503 -34.1478 -34.1478 -13.3970 -12.0970  -4.9156  -1.9236
    -1.9236  -1.0926  -0.8220  -0.8220   0.6751   3.4322   3.4322   3.6782
     3.6782

     occupation numbers 
     1.0000   1.0000   1.0000   1.0000   1.0000   1.0000   1.0000   1.0000
     1.0000   1.0000   1.0000   1.0000   1.0000   0.0000   0.0000   0.0000
     0.0000

          k = 0.0000 0.1650 0.0000 ( 10801 PWs)   bands (ev):

   -60.2135 -34.3365 -34.2186 -34.1639 -13.1049 -11.9766  -4.5982  -2.5141
    -2.0376  -1.6214  -1.2462  -0.3843   0.4822   3.0758   3.2242   3.3781
     3.8933

     occupation numbers 
     1.0000   1.0000   1.0000   1.0000   1.0000   1.0000   1.0000   1.0000
     1.0000   1.0000   1.0000   1.0000   1.0000   0.0000   0.0000   0.0000
     0.0000

          k = 0.0000 0.3299 0.0000 ( 10749 PWs)   bands (ev):

   -60.1978 -34.3750 -34.3051 -34.2001 -12.3701 -11.6768  -4.3468  -3.1890
    -3.1486  -1.9639  -0.9173  -0.7786  -0.1944   2.8917   2.9470   3.7787
     4.5939

     occupation numbers 
     1.0000   1.0000   1.0000   1.0000   1.0000   1.0000   1.0000   1.0000
     1.0000   1.0000   1.0000   1.0000   1.0000   0.0000   0.0000   0.0000
     0.0000

          k = 0.0000 0.4949 0.0000 ( 10714 PWs)   bands (ev):

   -60.1852 -34.4976 -34.2798 -34.2288 -11.6560 -11.3974  -4.9517  -3.9660
    -3.3172  -2.4137  -1.1448  -0.3709  -0.0787   2.8887   3.3097   4.4488
     4.9353

     occupation numbers 
     1.0000   1.0000   1.0000   1.0000   1.0000   1.0000   1.0000   1.0000
     1.0000   1.0000   1.0000   1.0000   1.0000   0.0000   0.0000   0.0000
     0.0000

          k = 0.1429 0.2474 0.0000 ( 10779 PWs)   bands (ev):

   -60.2021 -34.3221 -34.3138 -34.2002 -12.5883 -11.7633  -4.2339  -3.0884
    -2.6574  -2.2413  -1.2735  -0.2815   0.0178   2.6741   3.1257   3.2228
     4.6132

     occupation numbers 
     1.0000   1.0000   1.0000   1.0000   1.0000   1.0000   1.0000   1.0000
     1.0000   1.0000   1.0000   1.0000   1.0000   0.0000   0.0000   0.0000
     0.0000

          k = 0.1429 0.4124 0.0000 ( 10757 PWs)   bands (ev):

   -60.1880 -34.4414 -34.2855 -34.2527 -11.8383 -11.4549  -4.5118  -3.7778
    -3.0861  -2.5485  -1.4240  -0.7830  -0.0329   2.8151   3.2309   3.8314
     5.0378

     occupation numbers 
     1.0000   1.0000   1.0000   1.0000   1.0000   1.0000   1.0000   1.0000
     1.0000   1.0000   1.0000   1.0000   1.0000   0.0000   0.0000   0.0000
     0.0000

          k = 0.1429 0.5774 0.0000 ( 10690 PWs)   bands (ev):

   -60.1817 -34.4931 -34.2766 -34.2728 -11.4463 -11.2967  -4.7792  -4.3092
    -3.2817  -2.4655  -1.4066  -1.1823   0.3198   2.8598   3.6192   4.3056
     4.9430

     occupation numbers 
     1.0000   1.0000   1.0000   1.0000   1.0000   1.0000   1.0000   1.0000
     1.0000   1.0000   1.0000   1.0000   1.0000   0.0000   0.0000   0.0000
     0.0000

          k = 0.2857 0.4949 0.0000 ( 10706 PWs)   bands (ev):

   -60.1801 -34.4465 -34.3434 -34.2697 -11.3634 -11.2396  -4.5457  -4.2455
    -3.0090  -2.6741  -2.3579  -1.2513   0.4406   2.5929   3.7853   3.9207
     5.4009

     occupation numbers 
     1.0000   1.0000   1.0000   1.0000   1.0000   1.0000   1.0000   1.0000
     1.0000   1.0000   1.0000   1.0000   1.0000   0.0000   0.0000   0.0000
     0.0000

     the Fermi energy is     1.5376 ev

!    total energy              =    -187.73296455 Ry
     estimated scf accuracy    <          8.6E-10 Ry
     smearing contrib. (-TS)   =      -0.00000000 Ry
     internal energy E=F+TS    =    -187.73296455 Ry

     The total energy is F=E-TS. E is the sum of the following terms:
     one-electron contribution =    -711.37817057 Ry
     hartree contribution      =     357.65319981 Ry
     xc contribution           =     -36.26788240 Ry
     ewald contribution        =     202.25988861 Ry

     total magnetization       =    -0.00 Bohr mag/cell
     absolute magnetization    =     0.00 Bohr mag/cell

     convergence has been achieved in  12 iterations

     negative rho (up, down):  5.003E-05 5.003E-05

     Forces acting on atoms (cartesian axes, Ry/au):

     atom    1 type  1   force =     0.00000000    0.00000000    0.00000068
     atom    2 type  2   force =     0.00000000    0.00000000   -0.00113251
     atom    3 type  2   force =     0.00000000    0.00000000    0.00113183
     The non-local contrib.  to forces
     atom    1 type  1   force =     0.00000000    0.00000000    0.00000011
     atom    2 type  2   force =     0.00000000   -0.00000000   -0.27945826
     atom    3 type  2   force =     0.00000000   -0.00000000    0.27945812
     The ionic contribution  to forces
     atom    1 type  1   force =    -0.00000185    0.00000062   -0.00000081
     atom    2 type  2   force =     0.00000093   -0.00000031   32.59534829
     atom    3 type  2   force =     0.00000093   -0.00000031  -32.59534748
     The local contribution  to forces
     atom    1 type  1   force =    -0.00000000    0.00000000   -0.00000027
     atom    2 type  2   force =     0.00000256   -0.00000085  -32.33141551
     atom    3 type  2   force =     0.00000256   -0.00000085   32.33141234
     The core correction contribution to forces
     atom    1 type  1   force =     0.00000000   -0.00000000    0.00000000
     atom    2 type  2   force =    -0.00000030    0.00000010    0.01433722
     atom    3 type  2   force =    -0.00000030    0.00000010   -0.01433721
     The Hubbard contrib.    to forces
     atom    1 type  1   force =     0.00000000    0.00000000    0.00000000
     atom    2 type  2   force =     0.00000000    0.00000000    0.00000000
     atom    3 type  2   force =     0.00000000    0.00000000    0.00000000
     The SCF correction term to forces
     atom    1 type  1   force =    -0.00000000    0.00000000    0.00000161
     atom    2 type  2   force =     0.00000000   -0.00000000    0.00005572
     atom    3 type  2   force =     0.00000000   -0.00000000   -0.00005397

     Total force =     0.001601     Total SCF correction =     0.000078


     Computing stress (Cartesian axis) and pressure


     negative rho (up, down):  5.003E-05 5.003E-05
          total   stress  (Ry/bohr**3)                   (kbar)     P=       -0.79
  -0.00000428   0.00000000   0.00000000           -0.63        0.00        0.00
   0.00000000  -0.00000428   0.00000000            0.00       -0.63        0.00
   0.00000000   0.00000000  -0.00000745            0.00        0.00       -1.10

     kinetic stress (kbar)   4896.47      0.00      0.00
                                0.00   4896.47      0.00
                                0.00      0.00   4955.71

     local   stress (kbar)-115520.28     -0.00      0.00
                               -0.00-115520.28     -0.00
                                0.00     -0.00 112774.44

     nonloc. stress (kbar)   5158.35      0.00      0.00
                                0.00   5158.35      0.00
                                0.00      0.00   5173.75

     hartree stress (kbar)  56438.67      0.00      0.00
                                0.00  56438.67      0.00
                                0.00      0.00 -53679.35

     exc-cor stress (kbar)    368.40      0.00      0.00
                                0.00    368.40     -0.00
                                0.00     -0.00    367.40

     corecor stress (kbar)  -1917.70     -0.00      0.00
                               -0.00  -1917.70     -0.00
                                0.00     -0.00  -1919.76

     ewald   stress (kbar)  50575.45      0.00     -0.00
                                0.00  50575.46      0.00
                               -0.00      0.00 -67673.29

     hubbard stress (kbar)      0.00      0.00      0.00
                                0.00      0.00      0.00
                                0.00      0.00      0.00

     DFT-D   stress (kbar)      0.00      0.00      0.00
                                0.00      0.00      0.00
                                0.00      0.00      0.00

     XDM     stress (kbar)      0.00      0.00      0.00
                                0.00      0.00      0.00
                                0.00      0.00      0.00

     dft-nl  stress (kbar)      0.00      0.00      0.00
                                0.00      0.00      0.00
                                0.00      0.00      0.00

     TS-vdW  stress (kbar)      0.00      0.00      0.00
                                0.00      0.00      0.00
                                0.00      0.00      0.00



     BFGS Geometry Optimization
     Energy error            =      0.0E+00
     Gradient error          =      1.1E-03
     Cell gradient error     =      4.3E-06


     number of scf cycles    =   1
     number of bfgs steps    =   0

     enthalpy new            =    -187.7329645477 Ry

     new trust radius        =       0.0011325114 bohr
     new conv_thr            =       0.0000000010 Ry

     new unit-cell volume =    888.56624 a.u.^3 (   131.67193 Ang^3 )
     density =      2.01870 g/cm^3

CELL_PARAMETERS (alat=  6.01701403)
   0.999892938   0.000000000   0.000000000
  -0.499946469   0.865932685   0.000000000
   0.000000000   0.000000000   4.710956589

ATOMIC_POSITIONS (angstrom)
Mo            0.0000000000        0.0000000000        7.0635563613
S             1.5918625533        0.9190625925        8.6265137008
S             1.5918625533        0.9190625925        5.5005989379



     Writing output data file ./outdir/MoS2.save/
     NEW-OLD atomic charge density approx. for the potential

     negative rho (up, down):  4.939E-05 4.939E-05
     extrapolated charge   25.99443, renormalised to   26.00000
     Generating pointlists ...

     total cpu time spent up to now is       35.3 secs

     Self-consistent Calculation

     iteration #  1     ecut=    80.00 Ry     beta= 0.70
     Davidson diagonalization with overlap
     ethr =  1.00E-06,  avg # of iterations =  2.1

     negative rho (up, down):  2.978E-05 2.977E-05

     total cpu time spent up to now is       37.5 secs

     total energy              =    -187.73288939 Ry
     estimated scf accuracy    <       0.00018625 Ry

     total magnetization       =    -0.00 Bohr mag/cell
     absolute magnetization    =     0.00 Bohr mag/cell

     iteration #  2     ecut=    80.00 Ry     beta= 0.70
     Davidson diagonalization with overlap
     ethr =  7.16E-07,  avg # of iterations =  2.2

     negative rho (up, down):  3.348E-05 3.347E-05

     total cpu time spent up to now is       39.6 secs

     total energy              =    -187.73296597 Ry
     estimated scf accuracy    <       0.00013173 Ry

     total magnetization       =     0.00 Bohr mag/cell
     absolute magnetization    =     0.00 Bohr mag/cell

     iteration #  3     ecut=    80.00 Ry     beta= 0.70
     Davidson diagonalization with overlap
     ethr =  5.07E-07,  avg # of iterations =  1.0

     negative rho (up, down):  3.930E-05 3.930E-05

     total cpu time spent up to now is       41.7 secs

     total energy              =    -187.73296634 Ry
     estimated scf accuracy    <       0.00003304 Ry

     total magnetization       =    -0.00 Bohr mag/cell
     absolute magnetization    =     0.00 Bohr mag/cell

     iteration #  4     ecut=    80.00 Ry     beta= 0.70
     Davidson diagonalization with overlap
     ethr =  1.27E-07,  avg # of iterations =  1.2

     negative rho (up, down):  4.503E-05 4.503E-05

     total cpu time spent up to now is       43.7 secs

     total energy              =    -187.73296746 Ry
     estimated scf accuracy    <       0.00000710 Ry

     total magnetization       =    -0.00 Bohr mag/cell
     absolute magnetization    =     0.00 Bohr mag/cell

     iteration #  5     ecut=    80.00 Ry     beta= 0.70
     Davidson diagonalization with overlap
     ethr =  2.73E-08,  avg # of iterations =  1.0

     negative rho (up, down):  4.805E-05 4.805E-05

     total cpu time spent up to now is       45.7 secs

     total energy              =    -187.73296738 Ry
     estimated scf accuracy    <       0.00000426 Ry

     total magnetization       =     0.00 Bohr mag/cell
     absolute magnetization    =     0.00 Bohr mag/cell

     iteration #  6     ecut=    80.00 Ry     beta= 0.70
     Davidson diagonalization with overlap
     ethr =  1.64E-08,  avg # of iterations =  1.0

     negative rho (up, down):  4.906E-05 4.906E-05

     total cpu time spent up to now is       47.8 secs

     total energy              =    -187.73296738 Ry
     estimated scf accuracy    <       0.00000243 Ry

     total magnetization       =    -0.00 Bohr mag/cell
     absolute magnetization    =     0.00 Bohr mag/cell

     iteration #  7     ecut=    80.00 Ry     beta= 0.70
     Davidson diagonalization with overlap
     ethr =  9.36E-09,  avg # of iterations =  1.0

     negative rho (up, down):  4.970E-05 4.970E-05

     total cpu time spent up to now is       49.7 secs

     total energy              =    -187.73296734 Ry
     estimated scf accuracy    <       0.00000180 Ry

     total magnetization       =     0.00 Bohr mag/cell
     absolute magnetization    =     0.00 Bohr mag/cell

     iteration #  8     ecut=    80.00 Ry     beta= 0.70
     Davidson diagonalization with overlap
     ethr =  6.94E-09,  avg # of iterations =  1.0

     negative rho (up, down):  5.090E-05 5.090E-05

     total cpu time spent up to now is       51.7 secs

     total energy              =    -187.73296726 Ry
     estimated scf accuracy    <       0.00000130 Ry

     total magnetization       =    -0.00 Bohr mag/cell
     absolute magnetization    =     0.00 Bohr mag/cell

     iteration #  9     ecut=    80.00 Ry     beta= 0.70
     Davidson diagonalization with overlap
     ethr =  4.99E-09,  avg # of iterations =  1.0

     negative rho (up, down):  5.072E-05 5.072E-05

     total cpu time spent up to now is       54.0 secs

     total energy              =    -187.73296731 Ry
     estimated scf accuracy    <       0.00000063 Ry

     total magnetization       =     0.00 Bohr mag/cell
     absolute magnetization    =     0.00 Bohr mag/cell

     iteration # 10     ecut=    80.00 Ry     beta= 0.70
     Davidson diagonalization with overlap
     ethr =  2.41E-09,  avg # of iterations =  1.0

     negative rho (up, down):  5.309E-05 5.309E-05

     total cpu time spent up to now is       56.0 secs

     total energy              =    -187.73296717 Ry
     estimated scf accuracy    <       0.00000076 Ry

     total magnetization       =     0.00 Bohr mag/cell
     absolute magnetization    =     0.00 Bohr mag/cell

     iteration # 11     ecut=    80.00 Ry     beta= 0.70
     Davidson diagonalization with overlap
     ethr =  2.41E-09,  avg # of iterations =  2.0

     negative rho (up, down):  5.305E-05 5.305E-05

     total cpu time spent up to now is       58.1 secs

     total energy              =    -187.73296724 Ry
     estimated scf accuracy    <       0.00000003 Ry

     total magnetization       =    -0.00 Bohr mag/cell
     absolute magnetization    =     0.00 Bohr mag/cell

     iteration # 12     ecut=    80.00 Ry     beta= 0.70
     Davidson diagonalization with overlap
     ethr =  1.09E-10,  avg # of iterations =  2.8

     negative rho (up, down):  5.172E-05 5.172E-05

     total cpu time spent up to now is       60.2 secs

     total energy              =    -187.73296723 Ry
     estimated scf accuracy    <       0.00000002 Ry

     total magnetization       =    -0.00 Bohr mag/cell
     absolute magnetization    =     0.00 Bohr mag/cell

     iteration # 13     ecut=    80.00 Ry     beta= 0.70
     Davidson diagonalization with overlap
     ethr =  8.67E-11,  avg # of iterations =  3.9

     negative rho (up, down):  5.018E-05 5.018E-05

     total cpu time spent up to now is       62.6 secs

     total energy              =    -187.73296721 Ry
     estimated scf accuracy    <       0.00000024 Ry

     total magnetization       =     0.00 Bohr mag/cell
     absolute magnetization    =     0.00 Bohr mag/cell

     iteration # 14     ecut=    80.00 Ry     beta= 0.70
     Davidson diagonalization with overlap
     ethr =  8.67E-11,  avg # of iterations =  2.1

     negative rho (up, down):  5.047E-05 5.047E-05

     total cpu time spent up to now is       64.7 secs

     total energy              =    -187.73296721 Ry
     estimated scf accuracy    <       0.00000009 Ry

     total magnetization       =    -0.00 Bohr mag/cell
     absolute magnetization    =     0.00 Bohr mag/cell

     iteration # 15     ecut=    80.00 Ry     beta= 0.70
     Davidson diagonalization with overlap
     ethr =  8.67E-11,  avg # of iterations =  2.1

     negative rho (up, down):  5.005E-05 5.005E-05

     total cpu time spent up to now is       66.9 secs

     total energy              =    -187.73296720 Ry
     estimated scf accuracy    <       0.00000001 Ry

     total magnetization       =    -0.00 Bohr mag/cell
     absolute magnetization    =     0.00 Bohr mag/cell

     iteration # 16     ecut=    80.00 Ry     beta= 0.70
     Davidson diagonalization with overlap
     ethr =  4.41E-11,  avg # of iterations =  3.8

     negative rho (up, down):  5.012E-05 5.012E-05

     total cpu time spent up to now is       69.2 secs

     total energy              =    -187.73296719 Ry
     estimated scf accuracy    <       0.00000007 Ry

     total magnetization       =    -0.00 Bohr mag/cell
     absolute magnetization    =     0.00 Bohr mag/cell

     iteration # 17     ecut=    80.00 Ry     beta= 0.70
     Davidson diagonalization with overlap
     ethr =  4.41E-11,  avg # of iterations =  3.1

     negative rho (up, down):  5.002E-05 5.002E-05

     total cpu time spent up to now is       71.5 secs

     total energy              =    -187.73296721 Ry
     estimated scf accuracy    <          1.1E-09 Ry

     total magnetization       =     0.00 Bohr mag/cell
     absolute magnetization    =     0.00 Bohr mag/cell

     iteration # 18     ecut=    80.00 Ry     beta= 0.70
     Davidson diagonalization with overlap
     ethr =  4.22E-12,  avg # of iterations =  2.0

     negative rho (up, down):  4.998E-05 4.998E-05
 
     Magnetic moment per site:
     atom:    1    charge:   10.7503    magn:    0.0000    constr:    0.0000
     atom:    2    charge:    4.1538    magn:    0.0000    constr:    0.0000
     atom:    3    charge:    4.1538    magn:    0.0000    constr:    0.0000

     total cpu time spent up to now is       73.3 secs

     End of self-consistent calculation

 ------ SPIN UP ------------


          k = 0.0000 0.0000 0.0000 ( 10755 PWs)   bands (ev):

   -60.2186 -34.3489 -34.1461 -34.1461 -13.3990 -12.0967  -4.9172  -1.9258
    -1.9258  -1.0908  -0.8231  -0.8231   0.6776   3.4346   3.4346   3.6820
     3.6820

     occupation numbers 
     1.0000   1.0000   1.0000   1.0000   1.0000   1.0000   1.0000   1.0000
     1.0000   1.0000   1.0000   1.0000   1.0000   0.0000   0.0000   0.0000
     0.0000

          k =-0.0000 0.1650 0.0000 ( 10801 PWs)   bands (ev):

   -60.2116 -34.3350 -34.2171 -34.1623 -13.1067 -11.9764  -4.5999  -2.5162
    -2.0380  -1.6234  -1.2475  -0.3829   0.4844   3.0793   3.2267   3.3816
     3.8963

     occupation numbers 
     1.0000   1.0000   1.0000   1.0000   1.0000   1.0000   1.0000   1.0000
     1.0000   1.0000   1.0000   1.0000   1.0000   0.0000   0.0000   0.0000
     0.0000

          k =-0.0000 0.3299 0.0000 ( 10749 PWs)   bands (ev):

   -60.1959 -34.3737 -34.3036 -34.1985 -12.3714 -11.6769  -4.3492  -3.1895
    -3.1494  -1.9655  -0.9185  -0.7766  -0.1935   2.8949   2.9496   3.7819
     4.5981

     occupation numbers 
     1.0000   1.0000   1.0000   1.0000   1.0000   1.0000   1.0000   1.0000
     1.0000   1.0000   1.0000   1.0000   1.0000   0.0000   0.0000   0.0000
     0.0000

          k =-0.0000 0.4949 0.0000 ( 10714 PWs)   bands (ev):

   -60.1833 -34.4965 -34.2783 -34.2273 -11.6570 -11.3978  -4.9534  -3.9666
    -3.3181  -2.4154  -1.1429  -0.3711  -0.0779   2.8906   3.3124   4.4523
     4.9401

     occupation numbers 
     1.0000   1.0000   1.0000   1.0000   1.0000   1.0000   1.0000   1.0000
     1.0000   1.0000   1.0000   1.0000   1.0000   0.0000   0.0000   0.0000
     0.0000

          k = 0.1429 0.2475 0.0000 ( 10779 PWs)   bands (ev):

   -60.2003 -34.3207 -34.3123 -34.1986 -12.5898 -11.7634  -4.2362  -3.0894
    -2.6583  -2.2424  -1.2747  -0.2797   0.0189   2.6773   3.1286   3.2253
     4.6174

     occupation numbers 
     1.0000   1.0000   1.0000   1.0000   1.0000   1.0000   1.0000   1.0000
     1.0000   1.0000   1.0000   1.0000   1.0000   0.0000   0.0000   0.0000
     0.0000

          k = 0.1429 0.4124 0.0000 ( 10757 PWs)   bands (ev):

   -60.1861 -34.4402 -34.2839 -34.2512 -11.8393 -11.4552  -4.5139  -3.7792
    -3.0864  -2.5491  -1.4243  -0.7811  -0.0327   2.8180   3.2331   3.8346
     5.0426

     occupation numbers 
     1.0000   1.0000   1.0000   1.0000   1.0000   1.0000   1.0000   1.0000
     1.0000   1.0000   1.0000   1.0000   1.0000   0.0000   0.0000   0.0000
     0.0000

          k = 0.1429 0.5774 0.0000 ( 10690 PWs)   bands (ev):

   -60.1798 -34.4920 -34.2751 -34.2713 -11.4472 -11.2971  -4.7806  -4.3108
    -3.2827  -2.4661  -1.4065  -1.1805   0.3201   2.8616   3.6220   4.3096
     4.9471

     occupation numbers 
     1.0000   1.0000   1.0000   1.0000   1.0000   1.0000   1.0000   1.0000
     1.0000   1.0000   1.0000   1.0000   1.0000   0.0000   0.0000   0.0000
     0.0000

          k = 0.2857 0.4949 0.0000 ( 10706 PWs)   bands (ev):

   -60.1782 -34.4453 -34.3421 -34.2682 -11.3642 -11.2400  -4.5480  -4.2470
    -3.0096  -2.6746  -2.3576  -1.2496   0.4409   2.5942   3.7890   3.9242
     5.4057

     occupation numbers 
     1.0000   1.0000   1.0000   1.0000   1.0000   1.0000   1.0000   1.0000
     1.0000   1.0000   1.0000   1.0000   1.0000   0.0000   0.0000   0.0000
     0.0000

 ------ SPIN DOWN ----------


          k = 0.0000 0.0000 0.0000 ( 10755 PWs)   bands (ev):

   -60.2186 -34.3489 -34.1461 -34.1461 -13.3990 -12.0967  -4.9172  -1.9258
    -1.9258  -1.0908  -0.8231  -0.8231   0.6776   3.4346   3.4346   3.6820
     3.6820

     occupation numbers 
     1.0000   1.0000   1.0000   1.0000   1.0000   1.0000   1.0000   1.0000
     1.0000   1.0000   1.0000   1.0000   1.0000   0.0000   0.0000   0.0000
     0.0000

          k =-0.0000 0.1650 0.0000 ( 10801 PWs)   bands (ev):

   -60.2116 -34.3350 -34.2171 -34.1623 -13.1067 -11.9764  -4.5999  -2.5162
    -2.0380  -1.6234  -1.2475  -0.3829   0.4844   3.0793   3.2267   3.3816
     3.8963

     occupation numbers 
     1.0000   1.0000   1.0000   1.0000   1.0000   1.0000   1.0000   1.0000
     1.0000   1.0000   1.0000   1.0000   1.0000   0.0000   0.0000   0.0000
     0.0000

          k =-0.0000 0.3299 0.0000 ( 10749 PWs)   bands (ev):

   -60.1959 -34.3737 -34.3036 -34.1985 -12.3714 -11.6769  -4.3492  -3.1895
    -3.1494  -1.9655  -0.9185  -0.7766  -0.1935   2.8949   2.9496   3.7819
     4.5981

     occupation numbers 
     1.0000   1.0000   1.0000   1.0000   1.0000   1.0000   1.0000   1.0000
     1.0000   1.0000   1.0000   1.0000   1.0000   0.0000   0.0000   0.0000
     0.0000

          k =-0.0000 0.4949 0.0000 ( 10714 PWs)   bands (ev):

   -60.1833 -34.4965 -34.2783 -34.2273 -11.6570 -11.3978  -4.9534  -3.9666
    -3.3181  -2.4154  -1.1429  -0.3711  -0.0779   2.8906   3.3124   4.4523
     4.9401

     occupation numbers 
     1.0000   1.0000   1.0000   1.0000   1.0000   1.0000   1.0000   1.0000
     1.0000   1.0000   1.0000   1.0000   1.0000   0.0000   0.0000   0.0000
     0.0000

          k = 0.1429 0.2475 0.0000 ( 10779 PWs)   bands (ev):

   -60.2003 -34.3207 -34.3123 -34.1986 -12.5898 -11.7634  -4.2362  -3.0894
    -2.6583  -2.2424  -1.2747  -0.2797   0.0189   2.6773   3.1286   3.2253
     4.6174

     occupation numbers 
     1.0000   1.0000   1.0000   1.0000   1.0000   1.0000   1.0000   1.0000
     1.0000   1.0000   1.0000   1.0000   1.0000   0.0000   0.0000   0.0000
     0.0000

          k = 0.1429 0.4124 0.0000 ( 10757 PWs)   bands (ev):

   -60.1861 -34.4402 -34.2839 -34.2512 -11.8393 -11.4552  -4.5139  -3.7792
    -3.0864  -2.5491  -1.4243  -0.7811  -0.0327   2.8180   3.2331   3.8346
     5.0426

     occupation numbers 
     1.0000   1.0000   1.0000   1.0000   1.0000   1.0000   1.0000   1.0000
     1.0000   1.0000   1.0000   1.0000   1.0000   0.0000   0.0000   0.0000
     0.0000

          k = 0.1429 0.5774 0.0000 ( 10690 PWs)   bands (ev):

   -60.1798 -34.4920 -34.2751 -34.2713 -11.4472 -11.2971  -4.7806  -4.3108
    -3.2827  -2.4661  -1.4065  -1.1805   0.3201   2.8616   3.6220   4.3096
     4.9471

     occupation numbers 
     1.0000   1.0000   1.0000   1.0000   1.0000   1.0000   1.0000   1.0000
     1.0000   1.0000   1.0000   1.0000   1.0000   0.0000   0.0000   0.0000
     0.0000

          k = 0.2857 0.4949 0.0000 ( 10706 PWs)   bands (ev):

   -60.1782 -34.4453 -34.3421 -34.2682 -11.3642 -11.2400  -4.5480  -4.2470
    -3.0096  -2.6746  -2.3576  -1.2496   0.4409   2.5942   3.7890   3.9242
     5.4057

     occupation numbers 
     1.0000   1.0000   1.0000   1.0000   1.0000   1.0000   1.0000   1.0000
     1.0000   1.0000   1.0000   1.0000   1.0000   0.0000   0.0000   0.0000
     0.0000

     the Fermi energy is     1.5423 ev

!    total energy              =    -187.73296721 Ry
     estimated scf accuracy    <          1.2E-10 Ry
     smearing contrib. (-TS)   =      -0.00000000 Ry
     internal energy E=F+TS    =    -187.73296721 Ry

     The total energy is F=E-TS. E is the sum of the following terms:
     one-electron contribution =    -711.65572815 Ry
     hartree contribution      =     357.79291139 Ry
     xc contribution           =     -36.26930510 Ry
     ewald contribution        =     202.39915465 Ry

     total magnetization       =     0.00 Bohr mag/cell
     absolute magnetization    =     0.00 Bohr mag/cell

     convergence has been achieved in  18 iterations

     negative rho (up, down):  4.998E-05 4.998E-05

     Forces acting on atoms (cartesian axes, Ry/au):

     atom    1 type  1   force =     0.00000000    0.00000000   -0.00000002
     atom    2 type  2   force =     0.00000000    0.00000000   -0.00062101
     atom    3 type  2   force =     0.00000000    0.00000000    0.00062102
     The non-local contrib.  to forces
     atom    1 type  1   force =     0.00000000   -0.00000000    0.00000003
     atom    2 type  2   force =    -0.00000000    0.00000000   -0.27912656
     atom    3 type  2   force =     0.00000000    0.00000000    0.27912668
     The ionic contribution  to forces
     atom    1 type  1   force =    -0.00000186    0.00000062    0.00000007
     atom    2 type  2   force =     0.00000093   -0.00000031   32.60517455
     atom    3 type  2   force =     0.00000093   -0.00000031  -32.60517462
     The local contribution  to forces
     atom    1 type  1   force =    -0.00000000    0.00000000    0.00000074
     atom    2 type  2   force =     0.00000256   -0.00000085  -32.34099954
     atom    3 type  2   force =     0.00000256   -0.00000085   32.34099968
     The core correction contribution to forces
     atom    1 type  1   force =     0.00000000   -0.00000000   -0.00000001
     atom    2 type  2   force =    -0.00000030    0.00000010    0.01431589
     atom    3 type  2   force =    -0.00000030    0.00000010   -0.01431591
     The Hubbard contrib.    to forces
     atom    1 type  1   force =     0.00000000    0.00000000    0.00000000
     atom    2 type  2   force =     0.00000000    0.00000000    0.00000000
     atom    3 type  2   force =     0.00000000    0.00000000    0.00000000
     The SCF correction term to forces
     atom    1 type  1   force =    -0.00000000    0.00000000   -0.00000084
     atom    2 type  2   force =     0.00000000   -0.00000000    0.00001466
     atom    3 type  2   force =     0.00000000   -0.00000000   -0.00001479

     Total force =     0.000878     Total SCF correction =     0.000021


     Computing stress (Cartesian axis) and pressure


     negative rho (up, down):  4.998E-05 4.998E-05
          total   stress  (Ry/bohr**3)                   (kbar)     P=       -0.45
  -0.00000245   0.00000000   0.00000000           -0.36        0.00        0.00
   0.00000000  -0.00000245   0.00000000            0.00       -0.36        0.00
   0.00000000   0.00000000  -0.00000419            0.00        0.00       -0.62

     kinetic stress (kbar)   4897.80     -0.00     -0.00
                               -0.00   4897.80      0.00
                               -0.00      0.00   4957.43

     local   stress (kbar)-115594.96     -0.00     -0.00
                               -0.00-115594.96      0.00
                               -0.00      0.00 112852.00

     nonloc. stress (kbar)   5159.55     -0.00      0.00
                                0.00   5159.55     -0.00
                                0.00      0.00   5174.97

     hartree stress (kbar)  56474.73     -0.00      0.00
                               -0.00  56474.73     -0.00
                                0.00     -0.00 -53715.66

     exc-cor stress (kbar)    368.42      0.00      0.00
                                0.00    368.42     -0.00
                                0.00     -0.00    367.42

     corecor stress (kbar)  -1918.12     -0.00      0.00
                               -0.00  -1918.12     -0.00
                                0.00     -0.00  -1920.18

     ewald   stress (kbar)  50612.22      0.00      0.00
                                0.00  50612.22     -0.00
                                0.00     -0.00 -67716.60

     hubbard stress (kbar)      0.00      0.00      0.00
                                0.00      0.00      0.00
                                0.00      0.00      0.00

     DFT-D   stress (kbar)      0.00      0.00      0.00
                                0.00      0.00      0.00
                                0.00      0.00      0.00

     XDM     stress (kbar)      0.00      0.00      0.00
                                0.00      0.00      0.00
                                0.00      0.00      0.00

     dft-nl  stress (kbar)      0.00      0.00      0.00
                                0.00      0.00      0.00
                                0.00      0.00      0.00

     TS-vdW  stress (kbar)      0.00      0.00      0.00
                                0.00      0.00      0.00
                                0.00      0.00      0.00


     Energy error            =      2.7E-06
     Gradient error          =      6.2E-04
     Cell gradient error     =      2.5E-06


     number of scf cycles    =   2
     number of bfgs steps    =   1

     enthalpy old            =    -187.7329645477 Ry
     enthalpy new            =    -187.7329672053 Ry

     CASE: enthalpy_new < enthalpy_old

     new trust radius        =       0.0012457626 bohr
     new conv_thr            =            1.0E-11 Ry

     new unit-cell volume =    888.34771 a.u.^3 (   131.63955 Ang^3 )
     density =      2.01919 g/cm^3

CELL_PARAMETERS (alat=  6.01701403)
   0.999769978   0.000000000   0.000000000
  -0.499884989   0.865826199   0.000000000
   0.000000000   0.000000000   4.710956589

ATOMIC_POSITIONS (angstrom)
Mo            0.0000000000        0.0000000000        7.0635563422
S             1.5916667979        0.9189495730        8.6258544907
S             1.5916667979        0.9189495730        5.5012581671



     Writing output data file ./outdir/MoS2.save/
     NEW-OLD atomic charge density approx. for the potential

     negative rho (up, down):  4.926E-05 4.926E-05
     extrapolated charge   25.99360, renormalised to   26.00000
     Generating pointlists ...

     total cpu time spent up to now is       79.1 secs

     Self-consistent Calculation

     iteration #  1     ecut=    80.00 Ry     beta= 0.70
     Davidson diagonalization with overlap
     ethr =  1.00E-06,  avg # of iterations =  2.1

     negative rho (up, down):  2.729E-05 2.729E-05

     total cpu time spent up to now is       81.4 secs

     total energy              =    -187.73286477 Ry
     estimated scf accuracy    <       0.00024991 Ry

     total magnetization       =     0.00 Bohr mag/cell
     absolute magnetization    =     0.00 Bohr mag/cell

     iteration #  2     ecut=    80.00 Ry     beta= 0.70
     Davidson diagonalization with overlap
     ethr =  9.61E-07,  avg # of iterations =  2.2

     negative rho (up, down):  3.129E-05 3.129E-05

     total cpu time spent up to now is       83.5 secs

     total energy              =    -187.73296668 Ry
     estimated scf accuracy    <       0.00017377 Ry

     total magnetization       =    -0.00 Bohr mag/cell
     absolute magnetization    =     0.00 Bohr mag/cell

     iteration #  3     ecut=    80.00 Ry     beta= 0.70
     Davidson diagonalization with overlap
     ethr =  6.68E-07,  avg # of iterations =  1.0

     negative rho (up, down):  3.770E-05 3.770E-05

     total cpu time spent up to now is       85.6 secs

     total energy              =    -187.73296725 Ry
     estimated scf accuracy    <       0.00004332 Ry

     total magnetization       =    -0.00 Bohr mag/cell
     absolute magnetization    =     0.00 Bohr mag/cell

     iteration #  4     ecut=    80.00 Ry     beta= 0.70
     Davidson diagonalization with overlap
     ethr =  1.67E-07,  avg # of iterations =  1.2

     negative rho (up, down):  4.436E-05 4.436E-05

     total cpu time spent up to now is       87.6 secs

     total energy              =    -187.73296869 Ry
     estimated scf accuracy    <       0.00000920 Ry

     total magnetization       =     0.00 Bohr mag/cell
     absolute magnetization    =     0.00 Bohr mag/cell

     iteration #  5     ecut=    80.00 Ry     beta= 0.70
     Davidson diagonalization with overlap
     ethr =  3.54E-08,  avg # of iterations =  1.1

     negative rho (up, down):  4.756E-05 4.756E-05

     total cpu time spent up to now is       89.7 secs

     total energy              =    -187.73296859 Ry
     estimated scf accuracy    <       0.00000536 Ry

     total magnetization       =    -0.00 Bohr mag/cell
     absolute magnetization    =     0.00 Bohr mag/cell

     iteration #  6     ecut=    80.00 Ry     beta= 0.70
     Davidson diagonalization with overlap
     ethr =  2.06E-08,  avg # of iterations =  1.0

     negative rho (up, down):  4.877E-05 4.877E-05

     total cpu time spent up to now is       91.7 secs

     total energy              =    -187.73296859 Ry
     estimated scf accuracy    <       0.00000310 Ry

     total magnetization       =    -0.00 Bohr mag/cell
     absolute magnetization    =     0.00 Bohr mag/cell

     iteration #  7     ecut=    80.00 Ry     beta= 0.70
     Davidson diagonalization with overlap
     ethr =  1.19E-08,  avg # of iterations =  1.0

     negative rho (up, down):  4.942E-05 4.942E-05

     total cpu time spent up to now is       93.7 secs

     total energy              =    -187.73296855 Ry
     estimated scf accuracy    <       0.00000230 Ry

     total magnetization       =     0.00 Bohr mag/cell
     absolute magnetization    =     0.00 Bohr mag/cell

     iteration #  8     ecut=    80.00 Ry     beta= 0.70
     Davidson diagonalization with overlap
     ethr =  8.86E-09,  avg # of iterations =  1.0

     negative rho (up, down):  5.073E-05 5.073E-05

     total cpu time spent up to now is       95.7 secs

     total energy              =    -187.73296844 Ry
     estimated scf accuracy    <       0.00000173 Ry

     total magnetization       =    -0.00 Bohr mag/cell
     absolute magnetization    =     0.00 Bohr mag/cell

     iteration #  9     ecut=    80.00 Ry     beta= 0.70
     Davidson diagonalization with overlap
     ethr =  6.64E-09,  avg # of iterations =  1.0

     negative rho (up, down):  5.052E-05 5.052E-05

     total cpu time spent up to now is       97.7 secs

     total energy              =    -187.73296850 Ry
     estimated scf accuracy    <       0.00000086 Ry

     total magnetization       =    -0.00 Bohr mag/cell
     absolute magnetization    =     0.00 Bohr mag/cell

     iteration # 10     ecut=    80.00 Ry     beta= 0.70
     Davidson diagonalization with overlap
     ethr =  3.31E-09,  avg # of iterations =  1.0

     negative rho (up, down):  5.319E-05 5.319E-05

     total cpu time spent up to now is       99.9 secs

     total energy              =    -187.73296832 Ry
     estimated scf accuracy    <       0.00000102 Ry

     total magnetization       =    -0.00 Bohr mag/cell
     absolute magnetization    =     0.00 Bohr mag/cell

     iteration # 11     ecut=    80.00 Ry     beta= 0.70
     Davidson diagonalization with overlap
     ethr =  3.31E-09,  avg # of iterations =  1.9

     negative rho (up, down):  5.198E-05 5.198E-05

     total cpu time spent up to now is      102.2 secs

     total energy              =    -187.73296837 Ry
     estimated scf accuracy    <       0.00000006 Ry

     total magnetization       =     0.00 Bohr mag/cell
     absolute magnetization    =     0.00 Bohr mag/cell

     iteration # 12     ecut=    80.00 Ry     beta= 0.70
     Davidson diagonalization with overlap
     ethr =  2.20E-10,  avg # of iterations =  3.4

     negative rho (up, down):  5.062E-05 5.062E-05

     total cpu time spent up to now is      104.3 secs

     total energy              =    -187.73296839 Ry
     estimated scf accuracy    <       0.00000003 Ry

     total magnetization       =    -0.00 Bohr mag/cell
     absolute magnetization    =     0.00 Bohr mag/cell

     iteration # 13     ecut=    80.00 Ry     beta= 0.70
     Davidson diagonalization with overlap
     ethr =  1.18E-10,  avg # of iterations =  2.0

     negative rho (up, down):  5.016E-05 5.016E-05

     total cpu time spent up to now is      106.4 secs

     total energy              =    -187.73296836 Ry
     estimated scf accuracy    <       0.00000020 Ry

     total magnetization       =     0.00 Bohr mag/cell
     absolute magnetization    =     0.00 Bohr mag/cell

     iteration # 14     ecut=    80.00 Ry     beta= 0.70
     Davidson diagonalization with overlap
     ethr =  1.18E-10,  avg # of iterations =  2.0

     negative rho (up, down):  5.018E-05 5.018E-05

     total cpu time spent up to now is      108.5 secs

     total energy              =    -187.73296836 Ry
     estimated scf accuracy    <       0.00000003 Ry

     total magnetization       =     0.00 Bohr mag/cell
     absolute magnetization    =     0.00 Bohr mag/cell

     iteration # 15     ecut=    80.00 Ry     beta= 0.70
     Davidson diagonalization with overlap
     ethr =  1.18E-10,  avg # of iterations =  2.0

     negative rho (up, down):  5.000E-05 5.000E-05

     total cpu time spent up to now is      110.6 secs

     total energy              =    -187.73296836 Ry
     estimated scf accuracy    <          9.0E-10 Ry

     total magnetization       =     0.00 Bohr mag/cell
     absolute magnetization    =     0.00 Bohr mag/cell

     iteration # 16     ecut=    80.00 Ry     beta= 0.70
     Davidson diagonalization with overlap
     ethr =  3.44E-12,  avg # of iterations =  4.0

     negative rho (up, down):  5.002E-05 5.002E-05

     total cpu time spent up to now is      112.8 secs

     total energy              =    -187.73296836 Ry
     estimated scf accuracy    <          4.9E-09 Ry

     total magnetization       =    -0.00 Bohr mag/cell
     absolute magnetization    =     0.00 Bohr mag/cell

     iteration # 17     ecut=    80.00 Ry     beta= 0.70
     Davidson diagonalization with overlap
     ethr =  3.44E-12,  avg # of iterations =  3.0

     negative rho (up, down):  4.990E-05 4.990E-05

     total cpu time spent up to now is      114.9 secs

     total energy              =    -187.73296836 Ry
     estimated scf accuracy    <          1.5E-11 Ry

     total magnetization       =     0.00 Bohr mag/cell
     absolute magnetization    =     0.00 Bohr mag/cell

     iteration # 18     ecut=    80.00 Ry     beta= 0.70
     Davidson diagonalization with overlap
     ethr =  1.00E-13,  avg # of iterations =  3.2

     negative rho (up, down):  4.993E-05 4.993E-05

     total cpu time spent up to now is      117.1 secs

     total energy              =    -187.73296836 Ry
     estimated scf accuracy    <          1.0E-10 Ry

     total magnetization       =     0.00 Bohr mag/cell
     absolute magnetization    =     0.00 Bohr mag/cell

     iteration # 19     ecut=    80.00 Ry     beta= 0.70
     Davidson diagonalization with overlap
     ethr =  1.00E-13,  avg # of iterations =  2.8

     negative rho (up, down):  4.992E-05 4.992E-05
 
     Magnetic moment per site:
     atom:    1    charge:   10.7510    magn:   -0.0000    constr:    0.0000
     atom:    2    charge:    4.1544    magn:   -0.0000    constr:    0.0000
     atom:    3    charge:    4.1545    magn:   -0.0000    constr:    0.0000

     total cpu time spent up to now is      119.0 secs

     End of self-consistent calculation

 ------ SPIN UP ------------


          k = 0.0000 0.0000 0.0000 ( 10755 PWs)   bands (ev):

   -60.2164 -34.3472 -34.1442 -34.1442 -13.4011 -12.0963  -4.9190  -1.9282
    -1.9282  -1.0887  -0.8242  -0.8242   0.6804   3.4374   3.4374   3.6865
     3.6865

     occupation numbers 
     1.0000   1.0000   1.0000   1.0000   1.0000   1.0000   1.0000   1.0000
     1.0000   1.0000   1.0000   1.0000   1.0000   0.0000   0.0000   0.0000
     0.0000

          k =-0.0000 0.1650 0.0000 ( 10801 PWs)   bands (ev):

   -60.2094 -34.3333 -34.2152 -34.1604 -13.1087 -11.9761  -4.6018  -2.5183
    -2.0384  -1.6255  -1.2488  -0.3813   0.4868   3.0833   3.2296   3.3856
     3.8997

     occupation numbers 
     1.0000   1.0000   1.0000   1.0000   1.0000   1.0000   1.0000   1.0000
     1.0000   1.0000   1.0000   1.0000   1.0000   0.0000   0.0000   0.0000
     0.0000

          k =-0.0000 0.3300 0.0000 ( 10749 PWs)   bands (ev):

   -60.1937 -34.3721 -34.3018 -34.1966 -12.3728 -11.6770  -4.3519  -3.1899
    -3.1502  -1.9671  -0.9197  -0.7743  -0.1924   2.8986   2.9527   3.7856
     4.6028

     occupation numbers 
     1.0000   1.0000   1.0000   1.0000   1.0000   1.0000   1.0000   1.0000
     1.0000   1.0000   1.0000   1.0000   1.0000   0.0000   0.0000   0.0000
     0.0000

          k =-0.0000 0.4950 0.0000 ( 10714 PWs)   bands (ev):

   -60.1810 -34.4952 -34.2764 -34.2254 -11.6579 -11.3982  -4.9554  -3.9673
    -3.3190  -2.4173  -1.1407  -0.3713  -0.0769   2.8929   3.3156   4.4563
     4.9455

     occupation numbers 
     1.0000   1.0000   1.0000   1.0000   1.0000   1.0000   1.0000   1.0000
     1.0000   1.0000   1.0000   1.0000   1.0000   0.0000   0.0000   0.0000
     0.0000

          k = 0.1429 0.2475 0.0000 ( 10779 PWs)   bands (ev):

   -60.1981 -34.3190 -34.3106 -34.1967 -12.5914 -11.7633  -4.2386  -3.0904
    -2.6593  -2.2435  -1.2760  -0.2775   0.0202   2.6809   3.1320   3.2283
     4.6221

     occupation numbers 
     1.0000   1.0000   1.0000   1.0000   1.0000   1.0000   1.0000   1.0000
     1.0000   1.0000   1.0000   1.0000   1.0000   0.0000   0.0000   0.0000
     0.0000

          k = 0.1429 0.4125 0.0000 ( 10757 PWs)   bands (ev):

   -60.1839 -34.4388 -34.2821 -34.2494 -11.8404 -11.4554  -4.5162  -3.7808
    -3.0867  -2.5498  -1.4246  -0.7789  -0.0325   2.8214   3.2357   3.8383
     5.0480

     occupation numbers 
     1.0000   1.0000   1.0000   1.0000   1.0000   1.0000   1.0000   1.0000
     1.0000   1.0000   1.0000   1.0000   1.0000   0.0000   0.0000   0.0000
     0.0000

          k = 0.1429 0.5775 0.0000 ( 10690 PWs)   bands (ev):

   -60.1775 -34.4906 -34.2734 -34.2694 -11.4480 -11.2975  -4.7822  -4.3124
    -3.2839  -2.4667  -1.4062  -1.1784   0.3206   2.8637   3.6253   4.3142
     4.9518

     occupation numbers 
     1.0000   1.0000   1.0000   1.0000   1.0000   1.0000   1.0000   1.0000
     1.0000   1.0000   1.0000   1.0000   1.0000   0.0000   0.0000   0.0000
     0.0000

          k = 0.2858 0.4950 0.0000 ( 10706 PWs)   bands (ev):

   -60.1760 -34.4439 -34.3404 -34.2663 -11.3649 -11.2404  -4.5505  -4.2485
    -3.0101  -2.6750  -2.3570  -1.2475   0.4414   2.5958   3.7931   3.9282
     5.4112

     occupation numbers 
     1.0000   1.0000   1.0000   1.0000   1.0000   1.0000   1.0000   1.0000
     1.0000   1.0000   1.0000   1.0000   1.0000   0.0000   0.0000   0.0000
     0.0000

 ------ SPIN DOWN ----------


          k = 0.0000 0.0000 0.0000 ( 10755 PWs)   bands (ev):

   -60.2164 -34.3472 -34.1442 -34.1442 -13.4011 -12.0963  -4.9190  -1.9282
    -1.9282  -1.0887  -0.8242  -0.8242   0.6804   3.4374   3.4374   3.6865
     3.6865

     occupation numbers 
     1.0000   1.0000   1.0000   1.0000   1.0000   1.0000   1.0000   1.0000
     1.0000   1.0000   1.0000   1.0000   1.0000   0.0000   0.0000   0.0000
     0.0000

          k =-0.0000 0.1650 0.0000 ( 10801 PWs)   bands (ev):

   -60.2094 -34.3333 -34.2152 -34.1604 -13.1087 -11.9761  -4.6018  -2.5183
    -2.0384  -1.6255  -1.2488  -0.3813   0.4868   3.0833   3.2296   3.3856
     3.8997

     occupation numbers 
     1.0000   1.0000   1.0000   1.0000   1.0000   1.0000   1.0000   1.0000
     1.0000   1.0000   1.0000   1.0000   1.0000   0.0000   0.0000   0.0000
     0.0000

          k =-0.0000 0.3300 0.0000 ( 10749 PWs)   bands (ev):

   -60.1937 -34.3721 -34.3018 -34.1966 -12.3728 -11.6770  -4.3519  -3.1899
    -3.1502  -1.9671  -0.9197  -0.7743  -0.1924   2.8986   2.9527   3.7856
     4.6028

     occupation numbers 
     1.0000   1.0000   1.0000   1.0000   1.0000   1.0000   1.0000   1.0000
     1.0000   1.0000   1.0000   1.0000   1.0000   0.0000   0.0000   0.0000
     0.0000

          k =-0.0000 0.4950 0.0000 ( 10714 PWs)   bands (ev):

   -60.1810 -34.4952 -34.2764 -34.2254 -11.6579 -11.3982  -4.9554  -3.9673
    -3.3190  -2.4173  -1.1407  -0.3713  -0.0769   2.8929   3.3156   4.4563
     4.9455

     occupation numbers 
     1.0000   1.0000   1.0000   1.0000   1.0000   1.0000   1.0000   1.0000
     1.0000   1.0000   1.0000   1.0000   1.0000   0.0000   0.0000   0.0000
     0.0000

          k = 0.1429 0.2475 0.0000 ( 10779 PWs)   bands (ev):

   -60.1981 -34.3190 -34.3106 -34.1967 -12.5914 -11.7633  -4.2386  -3.0904
    -2.6593  -2.2435  -1.2760  -0.2775   0.0202   2.6809   3.1320   3.2283
     4.6221

     occupation numbers 
     1.0000   1.0000   1.0000   1.0000   1.0000   1.0000   1.0000   1.0000
     1.0000   1.0000   1.0000   1.0000   1.0000   0.0000   0.0000   0.0000
     0.0000

          k = 0.1429 0.4125 0.0000 ( 10757 PWs)   bands (ev):

   -60.1839 -34.4388 -34.2821 -34.2494 -11.8404 -11.4554  -4.5162  -3.7808
    -3.0867  -2.5498  -1.4246  -0.7789  -0.0325   2.8214   3.2357   3.8383
     5.0480

     occupation numbers 
     1.0000   1.0000   1.0000   1.0000   1.0000   1.0000   1.0000   1.0000
     1.0000   1.0000   1.0000   1.0000   1.0000   0.0000   0.0000   0.0000
     0.0000

          k = 0.1429 0.5775 0.0000 ( 10690 PWs)   bands (ev):

   -60.1775 -34.4906 -34.2734 -34.2694 -11.4480 -11.2975  -4.7822  -4.3124
    -3.2839  -2.4667  -1.4062  -1.1784   0.3206   2.8637   3.6253   4.3142
     4.9518

     occupation numbers 
     1.0000   1.0000   1.0000   1.0000   1.0000   1.0000   1.0000   1.0000
     1.0000   1.0000   1.0000   1.0000   1.0000   0.0000   0.0000   0.0000
     0.0000

          k = 0.2858 0.4950 0.0000 ( 10706 PWs)   bands (ev):

   -60.1760 -34.4439 -34.3404 -34.2663 -11.3649 -11.2404  -4.5505  -4.2485
    -3.0101  -2.6750  -2.3570  -1.2475   0.4414   2.5958   3.7931   3.9282
     5.4112

     occupation numbers 
     1.0000   1.0000   1.0000   1.0000   1.0000   1.0000   1.0000   1.0000
     1.0000   1.0000   1.0000   1.0000   1.0000   0.0000   0.0000   0.0000
     0.0000

     the Fermi energy is     1.5476 ev

!    total energy              =    -187.73296836 Ry
     estimated scf accuracy    <          8.3E-13 Ry
     smearing contrib. (-TS)   =      -0.00000000 Ry
     internal energy E=F+TS    =    -187.73296836 Ry

     The total energy is F=E-TS. E is the sum of the following terms:
     one-electron contribution =    -711.96780583 Ry
     hartree contribution      =     357.95011032 Ry
     xc contribution           =     -36.27089239 Ry
     ewald contribution        =     202.55561954 Ry

     total magnetization       =    -0.00 Bohr mag/cell
     absolute magnetization    =     0.00 Bohr mag/cell

     convergence has been achieved in  19 iterations

     negative rho (up, down):  4.992E-05 4.992E-05

     Forces acting on atoms (cartesian axes, Ry/au):

     atom    1 type  1   force =     0.00000000    0.00000000    0.00000002
     atom    2 type  2   force =     0.00000000    0.00000000   -0.00005037
     atom    3 type  2   force =     0.00000000    0.00000000    0.00005035
     The non-local contrib.  to forces
     atom    1 type  1   force =     0.00000000    0.00000000    0.00000005
     atom    2 type  2   force =     0.00000000    0.00000000   -0.27874180
     atom    3 type  2   force =     0.00000000    0.00000000    0.27874180
     The ionic contribution  to forces
     atom    1 type  1   force =    -0.00000186    0.00000062    0.00000002
     atom    2 type  2   force =     0.00000093   -0.00000031   32.61636528
     atom    3 type  2   force =     0.00000093   -0.00000031  -32.61636530
     The local contribution  to forces
     atom    1 type  1   force =    -0.00000000    0.00000000    0.00000001
     atom    2 type  2   force =     0.00000256   -0.00000085  -32.35196687
     atom    3 type  2   force =     0.00000256   -0.00000085   32.35196694
     The core correction contribution to forces
     atom    1 type  1   force =     0.00000000   -0.00000000   -0.00000001
     atom    2 type  2   force =    -0.00000030    0.00000010    0.01429100
     atom    3 type  2   force =    -0.00000030    0.00000010   -0.01429101
     The Hubbard contrib.    to forces
     atom    1 type  1   force =     0.00000000    0.00000000    0.00000000
     atom    2 type  2   force =     0.00000000    0.00000000    0.00000000
     atom    3 type  2   force =     0.00000000    0.00000000    0.00000000
     The SCF correction term to forces
     atom    1 type  1   force =    -0.00000000    0.00000000   -0.00000004
     atom    2 type  2   force =     0.00000000   -0.00000000    0.00000204
     atom    3 type  2   force =     0.00000000   -0.00000000   -0.00000207

     Total force =     0.000071     Total SCF correction =     0.000003


     Computing stress (Cartesian axis) and pressure


     negative rho (up, down):  4.992E-05 4.992E-05
          total   stress  (Ry/bohr**3)                   (kbar)     P=       -0.06
  -0.00000037   0.00000000   0.00000000           -0.06        0.00        0.00
   0.00000000  -0.00000037   0.00000000            0.00       -0.06        0.00
  -0.00000000   0.00000000  -0.00000054           -0.00        0.00       -0.08

     kinetic stress (kbar)   4899.33     -0.00      0.00
                               -0.00   4899.33     -0.00
                                0.00     -0.00   4959.38

     local   stress (kbar)-115679.58     -0.00     -0.00
                               -0.00-115679.58      0.00
                               -0.00      0.00 112939.86

     nonloc. stress (kbar)   5160.92     -0.00      0.00
                                0.00   5160.92      0.00
                               -0.00      0.00   5176.38

     hartree stress (kbar)  56515.61      0.00      0.00
                                0.00  56515.61     -0.00
                                0.00     -0.00 -53756.82

     exc-cor stress (kbar)    368.44      0.00      0.00
                                0.00    368.44     -0.00
                                0.00     -0.00    367.43

     corecor stress (kbar)  -1918.60     -0.00     -0.00
                               -0.00  -1918.60      0.00
                               -0.00      0.00  -1920.66

     ewald   stress (kbar)  50653.83      0.00      0.00
                                0.00  50653.83     -0.00
                                0.00     -0.00 -67765.65

     hubbard stress (kbar)      0.00      0.00      0.00
                                0.00      0.00      0.00
                                0.00      0.00      0.00

     DFT-D   stress (kbar)      0.00      0.00      0.00
                                0.00      0.00      0.00
                                0.00      0.00      0.00

     XDM     stress (kbar)      0.00      0.00      0.00
                                0.00      0.00      0.00
                                0.00      0.00      0.00

     dft-nl  stress (kbar)      0.00      0.00      0.00
                                0.00      0.00      0.00
                                0.00      0.00      0.00

     TS-vdW  stress (kbar)      0.00      0.00      0.00
                                0.00      0.00      0.00
                                0.00      0.00      0.00


     Energy error            =      1.2E-06
     Gradient error          =      5.0E-05
     Cell gradient error     =      3.7E-07

Begin final coordinates
     new unit-cell volume =    888.34771 a.u.^3 (   131.63955 Ang^3 )
     density =      2.01919 g/cm^3

CELL_PARAMETERS (alat=  6.01701403)
   0.999769978   0.000000000   0.000000000
  -0.499884989   0.865826199   0.000000000
   0.000000000   0.000000000   4.710956589

ATOMIC_POSITIONS (angstrom)
Mo            0.0000000000        0.0000000000        7.0635563422
S             1.5916667979        0.9189495730        8.6258544907
S             1.5916667979        0.9189495730        5.5012581671
End final coordinates



     Writing output data file ./outdir/MoS2.save/

     lsda relaxation :  a final configuration with zero
                        absolute magnetization has been found

     the program is checking if it is really the minimum energy structure
     by performing a new scf iteration without any "electronic" history

     Initial potential from superposition of free atoms

     starting charge   25.99886, renormalised to   26.00000

     negative rho (up, down):  3.127E-05 2.022E-05

     total cpu time spent up to now is      124.0 secs

     Self-consistent Calculation

     iteration #  1     ecut=    80.00 Ry     beta= 0.70
     Davidson diagonalization with overlap
     ethr =  1.00E-06,  avg # of iterations =  8.2

     negative rho (up, down):  1.575E-08 1.435E-08

     total cpu time spent up to now is      127.5 secs

     total energy              =    -187.72387325 Ry
     estimated scf accuracy    <       0.17295799 Ry

     total magnetization       =     0.00 Bohr mag/cell
     absolute magnetization    =     0.78 Bohr mag/cell

     iteration #  2     ecut=    80.00 Ry     beta= 0.70
     Davidson diagonalization with overlap
     ethr =  6.65E-04,  avg # of iterations =  1.0

     total cpu time spent up to now is      129.3 secs

     total energy              =    -187.72607729 Ry
     estimated scf accuracy    <       0.05152702 Ry

     total magnetization       =     0.00 Bohr mag/cell
     absolute magnetization    =     0.46 Bohr mag/cell

     iteration #  3     ecut=    80.00 Ry     beta= 0.70
     Davidson diagonalization with overlap
     ethr =  1.98E-04,  avg # of iterations =  2.0

     total cpu time spent up to now is      131.3 secs

     total energy              =    -187.73354552 Ry
     estimated scf accuracy    <       0.00505708 Ry

     total magnetization       =    -0.00 Bohr mag/cell
     absolute magnetization    =     0.10 Bohr mag/cell

     iteration #  4     ecut=    80.00 Ry     beta= 0.70
     Davidson diagonalization with overlap
     ethr =  1.95E-05,  avg # of iterations =  1.4

     total cpu time spent up to now is      133.1 secs

     total energy              =    -187.73254170 Ry
     estimated scf accuracy    <       0.00288496 Ry

     total magnetization       =     0.00 Bohr mag/cell
     absolute magnetization    =     0.04 Bohr mag/cell

     iteration #  5     ecut=    80.00 Ry     beta= 0.70
     Davidson diagonalization with overlap
     ethr =  1.11E-05,  avg # of iterations =  2.1

     total cpu time spent up to now is      135.1 secs

     total energy              =    -187.73285414 Ry
     estimated scf accuracy    <       0.00079209 Ry

     total magnetization       =    -0.00 Bohr mag/cell
     absolute magnetization    =     0.03 Bohr mag/cell

     iteration #  6     ecut=    80.00 Ry     beta= 0.70
     Davidson diagonalization with overlap
     ethr =  3.05E-06,  avg # of iterations =  1.9

     total cpu time spent up to now is      137.2 secs

     total energy              =    -187.73284457 Ry
     estimated scf accuracy    <       0.00029954 Ry

     total magnetization       =     0.00 Bohr mag/cell
     absolute magnetization    =     0.00 Bohr mag/cell

     iteration #  7     ecut=    80.00 Ry     beta= 0.70
     Davidson diagonalization with overlap
     ethr =  1.15E-06,  avg # of iterations =  2.1

     negative rho (up, down):  2.693E-05 2.712E-05

     total cpu time spent up to now is      139.2 secs

     total energy              =    -187.73294979 Ry
     estimated scf accuracy    <       0.00004749 Ry

     total magnetization       =     0.00 Bohr mag/cell
     absolute magnetization    =     0.01 Bohr mag/cell

     iteration #  8     ecut=    80.00 Ry     beta= 0.70
     Davidson diagonalization with overlap
     ethr =  1.83E-07,  avg # of iterations =  2.2

     negative rho (up, down):  3.570E-05 3.569E-05

     total cpu time spent up to now is      141.4 secs

     total energy              =    -187.73296718 Ry
     estimated scf accuracy    <       0.00000237 Ry

     total magnetization       =    -0.00 Bohr mag/cell
     absolute magnetization    =     0.00 Bohr mag/cell

     iteration #  9     ecut=    80.00 Ry     beta= 0.70
     Davidson diagonalization with overlap
     ethr =  9.12E-09,  avg # of iterations =  3.6

     negative rho (up, down):  5.323E-05 5.321E-05

     total cpu time spent up to now is      143.7 secs

     total energy              =    -187.73296824 Ry
     estimated scf accuracy    <       0.00000026 Ry

     total magnetization       =     0.00 Bohr mag/cell
     absolute magnetization    =     0.00 Bohr mag/cell

     iteration # 10     ecut=    80.00 Ry     beta= 0.70
     Davidson diagonalization with overlap
     ethr =  1.00E-09,  avg # of iterations =  3.4

     negative rho (up, down):  5.066E-05 5.066E-05

     total cpu time spent up to now is      145.9 secs

     total energy              =    -187.73296835 Ry
     estimated scf accuracy    <       0.00000002 Ry

     total magnetization       =    -0.00 Bohr mag/cell
     absolute magnetization    =     0.00 Bohr mag/cell

     iteration # 11     ecut=    80.00 Ry     beta= 0.70
     Davidson diagonalization with overlap
     ethr =  7.92E-11,  avg # of iterations =  4.1

     negative rho (up, down):  4.994E-05 4.994E-05

     total cpu time spent up to now is      148.3 secs

     total energy              =    -187.73296836 Ry
     estimated scf accuracy    <          1.7E-09 Ry

     total magnetization       =     0.00 Bohr mag/cell
     absolute magnetization    =     0.00 Bohr mag/cell

     iteration # 12     ecut=    80.00 Ry     beta= 0.70
     Davidson diagonalization with overlap
     ethr =  6.42E-12,  avg # of iterations =  3.0

[...]

     total cpu time spent up to now is      173.3 secs

     total energy              =    -187.73287562 Ry
     estimated scf accuracy    <       0.00031914 Ry

     total magnetization       =    -0.00 Bohr mag/cell
     absolute magnetization    =     0.00 Bohr mag/cell

     iteration #  7     ecut=    80.00 Ry     beta= 0.70
     Davidson diagonalization with overlap
     ethr =  1.23E-06,  avg # of iterations =  2.0

     negative rho (up, down):  5.426E-06 5.416E-06

     total cpu time spent up to now is      175.5 secs

     total energy              =    -187.73294643 Ry
     estimated scf accuracy    <       0.00005762 Ry

     total magnetization       =    -0.00 Bohr mag/cell
     absolute magnetization    =     0.00 Bohr mag/cell

     iteration #  8     ecut=    80.00 Ry     beta= 0.70
     Davidson diagonalization with overlap
     ethr =  2.22E-07,  avg # of iterations =  2.3

     negative rho (up, down):  4.053E-05 4.050E-05

     total cpu time spent up to now is      177.5 secs

     total energy              =    -187.73296694 Ry
     estimated scf accuracy    <       0.00000318 Ry

     total magnetization       =    -0.00 Bohr mag/cell
     absolute magnetization    =     0.00 Bohr mag/cell

     iteration #  9     ecut=    80.00 Ry     beta= 0.70
     Davidson diagonalization with overlap
     ethr =  1.22E-08,  avg # of iterations =  3.6

     negative rho (up, down):  4.383E-05 4.383E-05

     total cpu time spent up to now is      180.0 secs

     total energy              =    -187.73296812 Ry
     estimated scf accuracy    <       0.00000034 Ry

     total magnetization       =     0.00 Bohr mag/cell
     absolute magnetization    =     0.00 Bohr mag/cell

     iteration # 10     ecut=    80.00 Ry     beta= 0.70
     Davidson diagonalization with overlap
     ethr =  1.30E-09,  avg # of iterations =  3.4

     negative rho (up, down):  5.068E-05 5.068E-05

     total cpu time spent up to now is      182.3 secs

     total energy              =    -187.73296830 Ry
     estimated scf accuracy    <       0.00000002 Ry

     total magnetization       =    -0.00 Bohr mag/cell
     absolute magnetization    =     0.00 Bohr mag/cell

     iteration # 11     ecut=    80.00 Ry     beta= 0.70
     Davidson diagonalization with overlap
     ethr =  7.28E-11,  avg # of iterations =  3.8

     negative rho (up, down):  5.047E-05 5.047E-05

     total cpu time spent up to now is      184.6 secs

     total energy              =    -187.73296832 Ry
     estimated scf accuracy    <          9.6E-10 Ry

     total magnetization       =     0.00 Bohr mag/cell
     absolute magnetization    =     0.00 Bohr mag/cell

     iteration # 12     ecut=    80.00 Ry     beta= 0.70
     Davidson diagonalization with overlap
     ethr =  3.71E-12,  avg # of iterations =  3.2

     negative rho (up, down):  5.017E-05 5.017E-05

     total cpu time spent up to now is      186.9 secs

     total energy              =    -187.73296831 Ry
     estimated scf accuracy    <          3.3E-10 Ry

     total magnetization       =    -0.00 Bohr mag/cell
     absolute magnetization    =     0.00 Bohr mag/cell

     iteration # 13     ecut=    80.00 Ry     beta= 0.70
     Davidson diagonalization with overlap
     ethr =  1.28E-12,  avg # of iterations =  2.0

     negative rho (up, down):  5.017E-05 5.017E-05

     total cpu time spent up to now is      189.0 secs

     total energy              =    -187.73296831 Ry
     estimated scf accuracy    <          2.4E-11 Ry

     total magnetization       =    -0.00 Bohr mag/cell
     absolute magnetization    =     0.00 Bohr mag/cell

     iteration # 14     ecut=    80.00 Ry     beta= 0.70
     Davidson diagonalization with overlap
     ethr =  1.00E-13,  avg # of iterations =  4.1

     negative rho (up, down):  5.018E-05 5.018E-05
 
     Magnetic moment per site:
     atom:    1    charge:   10.7510    magn:   -0.0000    constr:    0.0000
     atom:    2    charge:    4.1544    magn:    0.0000    constr:    0.0000
     atom:    3    charge:    4.1545    magn:    0.0000    constr:    0.0000

     total cpu time spent up to now is      191.1 secs

     End of self-consistent calculation

 ------ SPIN UP ------------


          k = 0.0000 0.0000 0.0000 ( 10755 PWs)   bands (ev):

   -60.2164 -34.3472 -34.1442 -34.1442 -13.4011 -12.0963  -4.9190  -1.9282
    -1.9282  -1.0887  -0.8242  -0.8242   0.6804   3.4374   3.4374   3.6865
     3.6865

     occupation numbers 
     1.0000   1.0000   1.0000   1.0000   1.0000   1.0000   1.0000   1.0000
     1.0000   1.0000   1.0000   1.0000   1.0000   0.0000   0.0000   0.0000
     0.0000

          k =-0.0000 0.1650 0.0000 ( 10789 PWs)   bands (ev):

   -60.2094 -34.3333 -34.2152 -34.1604 -13.1086 -11.9761  -4.6018  -2.5183
    -2.0384  -1.6255  -1.2488  -0.3813   0.4868   3.0833   3.2296   3.3856
     3.8997

     occupation numbers 
     1.0000   1.0000   1.0000   1.0000   1.0000   1.0000   1.0000   1.0000
     1.0000   1.0000   1.0000   1.0000   1.0000   0.0000   0.0000   0.0000
     0.0000

          k =-0.0000 0.3300 0.0000 ( 10749 PWs)   bands (ev):

   -60.1937 -34.3721 -34.3018 -34.1966 -12.3728 -11.6770  -4.3519  -3.1899
    -3.1502  -1.9671  -0.9196  -0.7743  -0.1924   2.8986   2.9527   3.7856
     4.6028

     occupation numbers 
     1.0000   1.0000   1.0000   1.0000   1.0000   1.0000   1.0000   1.0000
     1.0000   1.0000   1.0000   1.0000   1.0000   0.0000   0.0000   0.0000
     0.0000

          k =-0.0000 0.4950 0.0000 ( 10714 PWs)   bands (ev):

   -60.1810 -34.4952 -34.2764 -34.2254 -11.6579 -11.3982  -4.9554  -3.9673
    -3.3190  -2.4173  -1.1407  -0.3713  -0.0769   2.8929   3.3156   4.4563
     4.9455

     occupation numbers 
     1.0000   1.0000   1.0000   1.0000   1.0000   1.0000   1.0000   1.0000
     1.0000   1.0000   1.0000   1.0000   1.0000   0.0000   0.0000   0.0000
     0.0000

          k = 0.1429 0.2475 0.0000 ( 10779 PWs)   bands (ev):

   -60.1981 -34.3190 -34.3106 -34.1967 -12.5914 -11.7633  -4.2386  -3.0904
    -2.6593  -2.2435  -1.2760  -0.2775   0.0202   2.6809   3.1320   3.2283
     4.6221

     occupation numbers 
     1.0000   1.0000   1.0000   1.0000   1.0000   1.0000   1.0000   1.0000
     1.0000   1.0000   1.0000   1.0000   1.0000   0.0000   0.0000   0.0000
     0.0000

          k = 0.1429 0.4125 0.0000 ( 10753 PWs)   bands (ev):

   -60.1839 -34.4388 -34.2821 -34.2494 -11.8404 -11.4554  -4.5162  -3.7808
    -3.0867  -2.5498  -1.4246  -0.7789  -0.0325   2.8214   3.2357   3.8383
     5.0480

     occupation numbers 
     1.0000   1.0000   1.0000   1.0000   1.0000   1.0000   1.0000   1.0000
     1.0000   1.0000   1.0000   1.0000   1.0000   0.0000   0.0000   0.0000
     0.0000

          k = 0.1429 0.5775 0.0000 ( 10690 PWs)   bands (ev):

   -60.1775 -34.4906 -34.2734 -34.2694 -11.4480 -11.2975  -4.7822  -4.3124
    -3.2839  -2.4667  -1.4062  -1.1784   0.3207   2.8637   3.6253   4.3142
     4.9518

     occupation numbers 
     1.0000   1.0000   1.0000   1.0000   1.0000   1.0000   1.0000   1.0000
     1.0000   1.0000   1.0000   1.0000   1.0000   0.0000   0.0000   0.0000
     0.0000

          k = 0.2858 0.4950 0.0000 ( 10694 PWs)   bands (ev):

   -60.1760 -34.4439 -34.3404 -34.2663 -11.3649 -11.2404  -4.5505  -4.2484
    -3.0101  -2.6750  -2.3570  -1.2475   0.4414   2.5958   3.7931   3.9282
     5.4112

     occupation numbers 
     1.0000   1.0000   1.0000   1.0000   1.0000   1.0000   1.0000   1.0000
     1.0000   1.0000   1.0000   1.0000   1.0000   0.0000   0.0000   0.0000
     0.0000

 ------ SPIN DOWN ----------


          k = 0.0000 0.0000 0.0000 ( 10755 PWs)   bands (ev):

   -60.2164 -34.3472 -34.1442 -34.1442 -13.4011 -12.0963  -4.9190  -1.9282
    -1.9282  -1.0887  -0.8242  -0.8242   0.6804   3.4374   3.4374   3.6865
     3.6865

     occupation numbers 
     1.0000   1.0000   1.0000   1.0000   1.0000   1.0000   1.0000   1.0000
     1.0000   1.0000   1.0000   1.0000   1.0000   0.0000   0.0000   0.0000
     0.0000

          k =-0.0000 0.1650 0.0000 ( 10789 PWs)   bands (ev):

   -60.2094 -34.3333 -34.2152 -34.1604 -13.1086 -11.9761  -4.6018  -2.5183
    -2.0384  -1.6255  -1.2488  -0.3813   0.4868   3.0833   3.2296   3.3856
     3.8997

     occupation numbers 
     1.0000   1.0000   1.0000   1.0000   1.0000   1.0000   1.0000   1.0000
     1.0000   1.0000   1.0000   1.0000   1.0000   0.0000   0.0000   0.0000
     0.0000

          k =-0.0000 0.3300 0.0000 ( 10749 PWs)   bands (ev):

   -60.1937 -34.3721 -34.3018 -34.1966 -12.3728 -11.6770  -4.3519  -3.1899
    -3.1502  -1.9671  -0.9196  -0.7743  -0.1924   2.8986   2.9527   3.7856
     4.6028

     occupation numbers 
     1.0000   1.0000   1.0000   1.0000   1.0000   1.0000   1.0000   1.0000
     1.0000   1.0000   1.0000   1.0000   1.0000   0.0000   0.0000   0.0000
     0.0000

          k =-0.0000 0.4950 0.0000 ( 10714 PWs)   bands (ev):

   -60.1810 -34.4952 -34.2764 -34.2254 -11.6579 -11.3982  -4.9554  -3.9673
    -3.3190  -2.4173  -1.1407  -0.3713  -0.0769   2.8929   3.3156   4.4563
     4.9455

     occupation numbers 
     1.0000   1.0000   1.0000   1.0000   1.0000   1.0000   1.0000   1.0000
     1.0000   1.0000   1.0000   1.0000   1.0000   0.0000   0.0000   0.0000
     0.0000

          k = 0.1429 0.2475 0.0000 ( 10779 PWs)   bands (ev):

   -60.1981 -34.3190 -34.3106 -34.1967 -12.5914 -11.7633  -4.2386  -3.0904
    -2.6593  -2.2435  -1.2760  -0.2775   0.0202   2.6809   3.1320   3.2283
     4.6221

     occupation numbers 
     1.0000   1.0000   1.0000   1.0000   1.0000   1.0000   1.0000   1.0000
     1.0000   1.0000   1.0000   1.0000   1.0000   0.0000   0.0000   0.0000
     0.0000

          k = 0.1429 0.4125 0.0000 ( 10753 PWs)   bands (ev):

   -60.1839 -34.4388 -34.2821 -34.2494 -11.8404 -11.4554  -4.5162  -3.7808
    -3.0867  -2.5498  -1.4246  -0.7789  -0.0325   2.8214   3.2357   3.8383
     5.0480

     occupation numbers 
     1.0000   1.0000   1.0000   1.0000   1.0000   1.0000   1.0000   1.0000
     1.0000   1.0000   1.0000   1.0000   1.0000   0.0000   0.0000   0.0000
     0.0000

          k = 0.1429 0.5775 0.0000 ( 10690 PWs)   bands (ev):

   -60.1775 -34.4906 -34.2734 -34.2694 -11.4480 -11.2975  -4.7822  -4.3124
    -3.2839  -2.4667  -1.4062  -1.1784   0.3207   2.8637   3.6253   4.3142
     4.9518

     occupation numbers 
     1.0000   1.0000   1.0000   1.0000   1.0000   1.0000   1.0000   1.0000
     1.0000   1.0000   1.0000   1.0000   1.0000   0.0000   0.0000   0.0000
     0.0000

          k = 0.2858 0.4950 0.0000 ( 10694 PWs)   bands (ev):

   -60.1760 -34.4439 -34.3404 -34.2663 -11.3649 -11.2404  -4.5505  -4.2484
    -3.0101  -2.6750  -2.3570  -1.2475   0.4414   2.5958   3.7931   3.9282
     5.4112

     occupation numbers 
     1.0000   1.0000   1.0000   1.0000   1.0000   1.0000   1.0000   1.0000
     1.0000   1.0000   1.0000   1.0000   1.0000   0.0000   0.0000   0.0000
     0.0000

     the Fermi energy is     1.5476 ev

!    total energy              =    -187.73296831 Ry
     estimated scf accuracy    <          1.2E-12 Ry
     smearing contrib. (-TS)   =      -0.00000000 Ry
     internal energy E=F+TS    =    -187.73296831 Ry

     The total energy is F=E-TS. E is the sum of the following terms:
     one-electron contribution =    -711.96777787 Ry
     hartree contribution      =     357.95008204 Ry
     xc contribution           =     -36.27089203 Ry
     ewald contribution        =     202.55561954 Ry

     total magnetization       =     0.00 Bohr mag/cell
     absolute magnetization    =     0.00 Bohr mag/cell

     convergence has been achieved in  14 iterations

     negative rho (up, down):  5.018E-05 5.018E-05

     Forces acting on atoms (cartesian axes, Ry/au):

     atom    1 type  1   force =     0.00000000    0.00000000   -0.00000019
     atom    2 type  2   force =     0.00000000    0.00000000   -0.00005113
     atom    3 type  2   force =     0.00000000    0.00000000    0.00005131
     The non-local contrib.  to forces
     atom    1 type  1   force =     0.00000000    0.00000000   -0.00000025
     atom    2 type  2   force =     0.00000000    0.00000000   -0.27874181
     atom    3 type  2   force =    -0.00000000    0.00000000    0.27874209
     The ionic contribution  to forces
     atom    1 type  1   force =    -0.00000186    0.00000062    0.00000002
     atom    2 type  2   force =     0.00000093   -0.00000031   32.61636528
     atom    3 type  2   force =     0.00000093   -0.00000031  -32.61636530
     The local contribution  to forces
     atom    1 type  1   force =     0.00000000    0.00000000    0.00000207
     atom    2 type  2   force =     0.00000256   -0.00000085  -32.35196291
     atom    3 type  2   force =     0.00000256   -0.00000085   32.35196412
     The core correction contribution to forces
     atom    1 type  1   force =     0.00000000   -0.00000000    0.00000003
     atom    2 type  2   force =    -0.00000030    0.00000010    0.01429101
     atom    3 type  2   force =    -0.00000030    0.00000010   -0.01429101
     The Hubbard contrib.    to forces
     atom    1 type  1   force =     0.00000000    0.00000000    0.00000000
     atom    2 type  2   force =     0.00000000    0.00000000    0.00000000
     atom    3 type  2   force =     0.00000000    0.00000000    0.00000000
     The SCF correction term to forces
     atom    1 type  1   force =    -0.00000000    0.00000000   -0.00000209
     atom    2 type  2   force =     0.00000000   -0.00000000   -0.00000271
     atom    3 type  2   force =     0.00000000   -0.00000000    0.00000138

     Total force =     0.000072     Total SCF correction =     0.000004


     Computing stress (Cartesian axis) and pressure


     negative rho (up, down):  5.018E-05 5.018E-05
          total   stress  (Ry/bohr**3)                   (kbar)     P=       -0.06
  -0.00000038   0.00000000   0.00000000           -0.06        0.00        0.00
   0.00000000  -0.00000038   0.00000000            0.00       -0.06        0.00
   0.00000000   0.00000000  -0.00000056            0.00        0.00       -0.08

     kinetic stress (kbar)   4899.33     -0.00      0.00
                                0.00   4899.33      0.00
                                0.00      0.00   4959.38

     local   stress (kbar)-115679.57     -0.00     -0.00
                               -0.00-115679.57      0.00
                               -0.00      0.00 112939.86

     nonloc. stress (kbar)   5160.92      0.00      0.00
                                0.00   5160.92      0.00
                                0.00      0.00   5176.38

     hartree stress (kbar)  56515.61      0.00      0.00
                                0.00  56515.61     -0.00
                                0.00     -0.00 -53756.82

     exc-cor stress (kbar)    368.44      0.00      0.00
                                0.00    368.44     -0.00
                                0.00     -0.00    367.43

     corecor stress (kbar)  -1918.60     -0.00      0.00
                               -0.00  -1918.60     -0.00
                                0.00     -0.00  -1920.66

     ewald   stress (kbar)  50653.83      0.00      0.00
                                0.00  50653.83     -0.00
                                0.00     -0.00 -67765.65

     hubbard stress (kbar)      0.00      0.00      0.00
                                0.00      0.00      0.00
                                0.00      0.00      0.00

     DFT-D   stress (kbar)      0.00      0.00      0.00
                                0.00      0.00      0.00
                                0.00      0.00      0.00

     XDM     stress (kbar)      0.00      0.00      0.00
                                0.00      0.00      0.00
                                0.00      0.00      0.00

     dft-nl  stress (kbar)      0.00      0.00      0.00
                                0.00      0.00      0.00
                                0.00      0.00      0.00

     TS-vdW  stress (kbar)      0.00      0.00      0.00
                                0.00      0.00      0.00
                                0.00      0.00      0.00



     Writing output data file ./outdir/MoS2.save/
 
     init_run     :      3.04s CPU      3.93s WALL (       2 calls)
     electrons    :    128.14s CPU    166.01s WALL (       5 calls)
     update_pot   :      2.24s CPU      2.33s WALL (       2 calls)
     forces       :      5.33s CPU      6.43s WALL (       5 calls)
     stress       :     11.50s CPU     14.18s WALL (       5 calls)

     Called by init_run:
     wfcinit      :      0.57s CPU      0.74s WALL (       2 calls)
     wfcinit:atom :      0.01s CPU      0.01s WALL (      32 calls)
     wfcinit:wfcr :      0.51s CPU      0.68s WALL (      32 calls)
     potinit      :      1.08s CPU      1.21s WALL (       3 calls)
     hinit0       :      1.23s CPU      1.40s WALL (       2 calls)

     Called by electrons:
     c_bands      :     52.45s CPU     59.88s WALL (      77 calls)
     sum_band     :     36.78s CPU     50.85s WALL (      77 calls)
     v_of_rho     :      7.10s CPU      8.58s WALL (      81 calls)
     v_h          :      0.27s CPU      0.30s WALL (      81 calls)
     v_xc         :      7.58s CPU      9.29s WALL (      91 calls)
     newd         :     16.90s CPU     31.21s WALL (      81 calls)
     mix_rho      :     15.56s CPU     16.85s WALL (      77 calls)

     Called by c_bands:
     init_us_2    :      1.42s CPU      1.67s WALL (    2656 calls)
     cegterg      :     46.55s CPU     52.68s WALL (    1232 calls)

     Called by sum_band:
     sum_band:wei :      0.00s CPU      0.00s WALL (      77 calls)
     sum_band:loo :      7.88s CPU      8.59s WALL (      77 calls)
     sum_band:buf :      0.16s CPU      0.17s WALL (    1232 calls)
     sum_band:ini :      0.66s CPU      0.71s WALL (    1232 calls)
     sum_band:cal :      0.64s CPU      0.68s WALL (    1232 calls)
     sum_band:bec :      0.03s CPU      0.03s WALL (    1232 calls)
     addusdens    :     27.63s CPU     40.11s WALL (      77 calls)
     addusd:skk   :      0.02s CPU      0.03s WALL (     154 calls)
     addusd:dgemm :      5.57s CPU     14.19s WALL (     308 calls)
     addusd:qvan2 :     20.94s CPU     22.25s WALL (     308 calls)

     Called by *egterg:
     cdiaghg      :      4.89s CPU      6.99s WALL (    4171 calls)
     cegterg:over :      2.17s CPU      2.45s WALL (    3003 calls)
     cegterg:upda :      1.39s CPU      1.54s WALL (    3003 calls)
     cegterg:last :      1.98s CPU      2.17s WALL (    2426 calls)
     cdiaghg:chol :      0.56s CPU      0.71s WALL (    4171 calls)
     cdiaghg:inve :      0.30s CPU      0.35s WALL (    4171 calls)
     cdiaghg:para :      0.43s CPU      0.51s WALL (    8342 calls)
     h_psi        :     34.02s CPU     37.44s WALL (    4267 calls)
     s_psi        :      1.08s CPU      1.15s WALL (    4267 calls)
     g_psi        :      0.21s CPU      0.23s WALL (    3003 calls)

     Called by h_psi:
     h_psi:calbec :      2.09s CPU      2.28s WALL (    4267 calls)
     vloc_psi     :     30.25s CPU     33.36s WALL (    4267 calls)
     add_vuspsi   :      1.34s CPU      1.44s WALL (    4267 calls)

     General routines
     calbec       :      2.91s CPU      3.15s WALL (    5899 calls)
     fft          :      4.04s CPU      5.50s WALL (    2217 calls)
     ffts         :      7.59s CPU      8.16s WALL (   16009 calls)
     fftw         :     32.19s CPU     35.49s WALL (  128204 calls)
     interpolate  :      0.40s CPU      0.44s WALL (     162 calls)
 
     Parallel routines
     fft_scatt_xy :      5.54s CPU      6.02s WALL (  146430 calls)
     fft_scatt_yz :     11.36s CPU     13.70s WALL (  146430 calls)
 
     PWSCF        :   2m31.55s CPU   3m15.45s WALL

 
   This run was terminated on:  16:48:36   7May2021            

=------------------------------------------------------------------------------=
   JOB DONE.
=------------------------------------------------------------------------------=
