
     Program PWSCF v.6.7MaX starts on  7May2021 at 17:58:28 

     This program is part of the open-source Quantum ESPRESSO suite
     for quantum simulation of materials; please cite
         "P. Giannozzi et al., J. Phys.:Condens. Matter 21 395502 (2009);
         "P. Giannozzi et al., J. Phys.:Condens. Matter 29 465901 (2017);
          URL http://www.quantum-espresso.org", 
     in publications or presentations arising from this work. More details at
     http://www.quantum-espresso.org/quote

     Parallel version (MPI), running on    10 processors

     MPI processes distributed on     1 nodes
     R & G space division:  proc/nbgrp/npool/nimage =      10
     Reading input from mos2_2_nscf.in

     Current dimensions of program PWSCF are:
     Max number of different atomic species (ntypx) = 10
     Max number of k-points (npk) =  40000
     Max angular momentum in pseudopotentials (lmaxx) =  3

     Atomic positions and unit cell read from directory:
     ./outdir/MoS2.save/
     Atomic positions from file used, from input discarded
 

     Subspace diagonalization in iterative solution of the eigenvalue problem:
     one sub-group per band group will be used
     scalapack distributed-memory algorithm (size of sub-group:  3*  3 procs)

 
     Parallelization info
     --------------------
     sticks:   dense  smooth     PW     G-vecs:    dense   smooth      PW
     Min         159      80     23                24281     8582    1331
     Max         160      81     24                24290     8593    1338
     Sum        1597     805    235               242833    85865   13365
 


     bravais-lattice index     =            4
     lattice parameter (alat)  =       6.0156  a.u.
     unit-cell volume          =     888.3477 (a.u.)^3
     number of atoms/cell      =            3
     number of atomic types    =            2
     number of electrons       =        26.00
     number of Kohn-Sham states=           17
     kinetic-energy cutoff     =      80.0000  Ry
     charge density cutoff     =     640.0000  Ry
     Exchange-correlation=  SLA  PW   PBX  PBC
                           (   1   4   3   4   0   0   0)

     celldm(1)=   6.015630  celldm(2)=   0.000000  celldm(3)=   4.712040
     celldm(4)=   0.000000  celldm(5)=   0.000000  celldm(6)=   0.000000

     crystal axes: (cart. coord. in units of alat)
               a(1) = (   1.000000   0.000000   0.000000 )  
               a(2) = (  -0.500000   0.866025   0.000000 )  
               a(3) = (   0.000000   0.000000   4.712040 )  

     reciprocal axes: (cart. coord. in units 2 pi/alat)
               b(1) = (  1.000000  0.577350  0.000000 )  
               b(2) = (  0.000000  1.154701  0.000000 )  
               b(3) = (  0.000000  0.000000  0.212222 )  


     PseudoPot. # 1 for Mo read from file:
     /home/melsa.ducut/scratch2/all_pbe_UPF/mo_pbe_v1.uspp.F.UPF
     MD5 check sum: 30c4dcd161f5d35cd49bb5239c51a633
     Pseudo is Ultrasoft + core correction, Zval = 14.0
     Generated by new atomic code, or converted to UPF format
     Using radial grid of  889 points,  6 beta functions with: 
                l(1) =   0
                l(2) =   0
                l(3) =   1
                l(4) =   1
                l(5) =   2
                l(6) =   2
     Q(r) pseudized with  6 coefficients,  rinner =    1.000   1.000   1.000
                                                       1.000   1.000

     PseudoPot. # 2 for S  read from file:
     /home/melsa.ducut/scratch2/all_pbe_UPF/s_pbe_v1.4.uspp.F.UPF
     MD5 check sum: 88d86576ff6df21479756cfb9bdac1df
     Pseudo is Ultrasoft + core correction, Zval =  6.0
     Generated by new atomic code, or converted to UPF format
     Using radial grid of  907 points,  6 beta functions with: 
                l(1) =   0
                l(2) =   0
                l(3) =   1
                l(4) =   1
                l(5) =   2
                l(6) =   2
     Q(r) pseudized with  8 coefficients,  rinner =    1.300   1.300   1.300
                                                       1.300   1.300

     atomic species   valence    mass     pseudopotential
        Mo            14.00    95.94000     Mo( 1.00)
        S              6.00    32.06600     S ( 1.00)

     Starting magnetic structure 
     atomic species   magnetization
        Mo           0.200
        S            0.000

      2 Sym. Ops. (no inversion) found


                                    s                        frac. trans.

      isym =  1     identity                                     

 cryst.   s( 1) = (     1          0          0      )
                  (     0          1          0      )
                  (     0          0          1      )

 cart.    s( 1) = (  1.0000000  0.0000000  0.0000000 )
                  (  0.0000000  1.0000000  0.0000000 )
                  (  0.0000000  0.0000000  1.0000000 )


      isym =  2     inv. 180 deg rotation - cryst. axis [0,1,0]  

 cryst.   s( 2) = (     1          1          0      )
                  (     0         -1          0      )
                  (     0          0          1      )

 cart.    s( 2) = (  0.5000000  0.8660254  0.0000000 )
                  (  0.8660254 -0.5000000  0.0000000 )
                  (  0.0000000  0.0000000  1.0000000 )


     point group C_s (m)    
     there are  2 classes
     the character table:

       E     s    
A'     1.00  1.00
A''    1.00 -1.00

     the symmetry operations in each class and the name of the first element:

     E        1
          identity                                               
     s        2
          inv. 180 deg rotation - cryst. axis [0,1,0]            

   Cartesian axes

     site n.     atom                  positions (alat units)
         1           Mo  tau(   1) = (   0.0000000   0.0000000   2.2189174  )
         2           S   tau(   2) = (   0.5001149   0.2887416   2.7100870  )
         3           S   tau(   3) = (   0.5001149   0.2887416   1.7277482  )

   Crystallographic axes

     site n.     atom                  positions (cryst. coord.)
         1           Mo  tau(   1) = (  0.0000000  0.0000000  0.4709037  )
         2           S   tau(   2) = (  0.6668200  0.3334101  0.5751409  )
         3           S   tau(   3) = (  0.6668200  0.3334101  0.3666667  )

     number of k points=   111  Gaussian smearing, width (Ry)=  0.0100
                       cart. coord. in units 2pi/alat
        k(    1) = (   0.0000000   0.0000000   0.0000000), wk =   0.0025000
        k(    2) = (   0.0000000   0.0577350   0.0000000), wk =   0.0100000
        k(    3) = (   0.0000000   0.1154701   0.0000000), wk =   0.0100000
        k(    4) = (   0.0000000   0.1732051   0.0000000), wk =   0.0100000
        k(    5) = (   0.0000000   0.2309401   0.0000000), wk =   0.0100000
        k(    6) = (   0.0000000   0.2886751   0.0000000), wk =   0.0100000
        k(    7) = (   0.0000000   0.3464102   0.0000000), wk =   0.0100000
        k(    8) = (   0.0000000   0.4041452   0.0000000), wk =   0.0100000
        k(    9) = (   0.0000000   0.4618802   0.0000000), wk =   0.0100000
        k(   10) = (   0.0000000   0.5196152   0.0000000), wk =   0.0100000
        k(   11) = (   0.0000000  -0.5773503   0.0000000), wk =   0.0050000
        k(   12) = (   0.0500000   0.0866025   0.0000000), wk =   0.0100000
        k(   13) = (   0.0500000   0.1443376   0.0000000), wk =   0.0100000
        k(   14) = (   0.0500000   0.2020726   0.0000000), wk =   0.0100000
        k(   15) = (   0.0500000   0.2598076   0.0000000), wk =   0.0100000
        k(   16) = (   0.0500000   0.3175426   0.0000000), wk =   0.0100000
        k(   17) = (   0.0500000   0.3752777   0.0000000), wk =   0.0100000
        k(   18) = (   0.0500000   0.4330127   0.0000000), wk =   0.0100000
        k(   19) = (   0.0500000   0.4907477   0.0000000), wk =   0.0100000
        k(   20) = (   0.0500000   0.5484828   0.0000000), wk =   0.0100000
        k(   21) = (   0.1000000   0.1732051   0.0000000), wk =   0.0100000
        k(   22) = (   0.1000000   0.2309401   0.0000000), wk =   0.0100000
        k(   23) = (   0.1000000   0.2886751   0.0000000), wk =   0.0100000
        k(   24) = (   0.1000000   0.3464102   0.0000000), wk =   0.0100000
        k(   25) = (   0.1000000   0.4041452   0.0000000), wk =   0.0100000
        k(   26) = (   0.1000000   0.4618802   0.0000000), wk =   0.0100000
        k(   27) = (   0.1000000   0.5196152   0.0000000), wk =   0.0100000
        k(   28) = (   0.1000000   0.5773503   0.0000000), wk =   0.0100000
        k(   29) = (   0.1500000   0.2598076   0.0000000), wk =   0.0100000
        k(   30) = (   0.1500000   0.3175426   0.0000000), wk =   0.0100000
        k(   31) = (   0.1500000   0.3752777   0.0000000), wk =   0.0100000
        k(   32) = (   0.1500000   0.4330127   0.0000000), wk =   0.0100000
        k(   33) = (   0.1500000   0.4907477   0.0000000), wk =   0.0100000
        k(   34) = (   0.1500000   0.5484828   0.0000000), wk =   0.0100000
        k(   35) = (   0.2000000   0.3464102   0.0000000), wk =   0.0100000
        k(   36) = (   0.2000000   0.4041452   0.0000000), wk =   0.0100000
        k(   37) = (   0.2000000   0.4618802   0.0000000), wk =   0.0100000
        k(   38) = (   0.2000000   0.5196152   0.0000000), wk =   0.0100000
        k(   39) = (   0.2000000   0.5773503   0.0000000), wk =   0.0100000
        k(   40) = (   0.2500000   0.4330127   0.0000000), wk =   0.0100000
        k(   41) = (   0.2500000   0.4907477   0.0000000), wk =   0.0100000
        k(   42) = (   0.2500000   0.5484828   0.0000000), wk =   0.0100000
        k(   43) = (   0.3000000   0.5196152   0.0000000), wk =   0.0100000
        k(   44) = (   0.3000000   0.5773503   0.0000000), wk =   0.0100000
        k(   45) = (   0.0500000   0.0288675   0.0000000), wk =   0.0050000
        k(   46) = (   0.1000000   0.0577350   0.0000000), wk =   0.0050000
        k(   47) = (   0.1500000   0.0866025   0.0000000), wk =   0.0050000
        k(   48) = (   0.2000000   0.1154701   0.0000000), wk =   0.0050000
        k(   49) = (   0.2500000   0.1443376   0.0000000), wk =   0.0050000
        k(   50) = (   0.3000000   0.1732051   0.0000000), wk =   0.0050000
        k(   51) = (   0.3500000   0.2020726   0.0000000), wk =   0.0050000
        k(   52) = (   0.4000000   0.2309401   0.0000000), wk =   0.0050000
        k(   53) = (   0.4500000   0.2598076   0.0000000), wk =   0.0050000
        k(   54) = (  -0.5000000  -0.2886751   0.0000000), wk =   0.0025000
        k(   55) = (  -0.0500000   0.0866025   0.0000000), wk =   0.0050000
        k(   56) = (  -0.0500000   0.1443376   0.0000000), wk =   0.0100000
        k(   57) = (   0.1500000   0.0288675   0.0000000), wk =   0.0100000
        k(   58) = (  -0.0500000   0.2020726   0.0000000), wk =   0.0100000
        k(   59) = (   0.2000000   0.0577350   0.0000000), wk =   0.0100000
        k(   60) = (  -0.0500000   0.2598076   0.0000000), wk =   0.0100000
        k(   61) = (   0.2500000   0.0866025   0.0000000), wk =   0.0100000
        k(   62) = (  -0.0500000   0.3175426   0.0000000), wk =   0.0100000
        k(   63) = (   0.3000000   0.1154701   0.0000000), wk =   0.0100000
        k(   64) = (  -0.0500000   0.3752777   0.0000000), wk =   0.0100000
        k(   65) = (   0.3500000   0.1443376   0.0000000), wk =   0.0100000
        k(   66) = (  -0.0500000   0.4330127   0.0000000), wk =   0.0100000
        k(   67) = (   0.4000000   0.1732051   0.0000000), wk =   0.0100000
        k(   68) = (  -0.0500000   0.4907477   0.0000000), wk =   0.0100000
        k(   69) = (   0.4500000   0.2020726   0.0000000), wk =   0.0100000
        k(   70) = (  -0.0500000   0.5484828   0.0000000), wk =   0.0100000
        k(   71) = (   0.5000000   0.2309401   0.0000000), wk =   0.0100000
        k(   72) = (  -0.1000000   0.1732051   0.0000000), wk =   0.0050000
        k(   73) = (  -0.1000000   0.2309401   0.0000000), wk =   0.0100000
        k(   74) = (   0.2500000   0.0288675   0.0000000), wk =   0.0100000
        k(   75) = (  -0.1000000   0.2886751   0.0000000), wk =   0.0100000
        k(   76) = (   0.3000000   0.0577350   0.0000000), wk =   0.0100000
        k(   77) = (  -0.1000000   0.3464102   0.0000000), wk =   0.0100000
        k(   78) = (   0.3500000   0.0866025   0.0000000), wk =   0.0100000
        k(   79) = (  -0.1000000   0.4041452   0.0000000), wk =   0.0100000
        k(   80) = (   0.4000000   0.1154701   0.0000000), wk =   0.0100000
        k(   81) = (  -0.1000000   0.4618802   0.0000000), wk =   0.0100000
        k(   82) = (   0.4500000   0.1443376   0.0000000), wk =   0.0100000
        k(   83) = (  -0.1000000   0.5196152   0.0000000), wk =   0.0100000
        k(   84) = (   0.5000000   0.1732051   0.0000000), wk =   0.0100000
        k(   85) = (   0.5500000   0.2020726   0.0000000), wk =   0.0050000
        k(   86) = (  -0.1500000   0.2598076   0.0000000), wk =   0.0050000
        k(   87) = (  -0.1500000   0.3175426   0.0000000), wk =   0.0100000
        k(   88) = (   0.3500000   0.0288675   0.0000000), wk =   0.0100000
        k(   89) = (  -0.1500000   0.3752777   0.0000000), wk =   0.0100000
        k(   90) = (   0.4000000   0.0577350   0.0000000), wk =   0.0100000
        k(   91) = (  -0.1500000   0.4330127   0.0000000), wk =   0.0100000
        k(   92) = (   0.4500000   0.0866025   0.0000000), wk =   0.0100000
        k(   93) = (  -0.1500000   0.4907477   0.0000000), wk =   0.0100000
        k(   94) = (   0.5000000   0.1154701   0.0000000), wk =   0.0100000
        k(   95) = (  -0.1500000   0.5484828   0.0000000), wk =   0.0100000
        k(   96) = (   0.5500000   0.1443376   0.0000000), wk =   0.0100000
        k(   97) = (  -0.2000000   0.3464102   0.0000000), wk =   0.0050000
        k(   98) = (  -0.2000000   0.4041452   0.0000000), wk =   0.0100000
        k(   99) = (   0.4500000   0.0288675   0.0000000), wk =   0.0100000
        k(  100) = (  -0.2000000   0.4618802   0.0000000), wk =   0.0100000
        k(  101) = (   0.5000000   0.0577350   0.0000000), wk =   0.0100000
        k(  102) = (  -0.2000000   0.5196152   0.0000000), wk =   0.0100000
        k(  103) = (   0.5500000   0.0866025   0.0000000), wk =   0.0100000
        k(  104) = (   0.6000000   0.1154701   0.0000000), wk =   0.0050000
        k(  105) = (  -0.2500000   0.4330127   0.0000000), wk =   0.0050000
        k(  106) = (  -0.2500000   0.4907477   0.0000000), wk =   0.0100000
        k(  107) = (   0.5500000   0.0288675   0.0000000), wk =   0.0100000
        k(  108) = (  -0.2500000   0.5484828   0.0000000), wk =   0.0100000
        k(  109) = (   0.6000000   0.0577350   0.0000000), wk =   0.0100000
        k(  110) = (  -0.3000000   0.5196152   0.0000000), wk =   0.0050000
        k(  111) = (   0.6500000   0.0288675   0.0000000), wk =   0.0050000

                       cryst. coord.
        k(    1) = (   0.0000000   0.0000000   0.0000000), wk =   0.0025000
        k(    2) = (   0.0000000   0.0500000   0.0000000), wk =   0.0100000
        k(    3) = (   0.0000000   0.1000000   0.0000000), wk =   0.0100000
        k(    4) = (   0.0000000   0.1500000   0.0000000), wk =   0.0100000
        k(    5) = (   0.0000000   0.2000000   0.0000000), wk =   0.0100000
        k(    6) = (   0.0000000   0.2500000   0.0000000), wk =   0.0100000
        k(    7) = (   0.0000000   0.3000000   0.0000000), wk =   0.0100000
        k(    8) = (   0.0000000   0.3500000   0.0000000), wk =   0.0100000
        k(    9) = (   0.0000000   0.4000000   0.0000000), wk =   0.0100000
        k(   10) = (   0.0000000   0.4500000   0.0000000), wk =   0.0100000
        k(   11) = (   0.0000000  -0.5000000   0.0000000), wk =   0.0050000
        k(   12) = (   0.0500000   0.0500000   0.0000000), wk =   0.0100000
        k(   13) = (   0.0500000   0.1000000   0.0000000), wk =   0.0100000
        k(   14) = (   0.0500000   0.1500000   0.0000000), wk =   0.0100000
        k(   15) = (   0.0500000   0.2000000   0.0000000), wk =   0.0100000
        k(   16) = (   0.0500000   0.2500000   0.0000000), wk =   0.0100000
        k(   17) = (   0.0500000   0.3000000   0.0000000), wk =   0.0100000
        k(   18) = (   0.0500000   0.3500000   0.0000000), wk =   0.0100000
        k(   19) = (   0.0500000   0.4000000   0.0000000), wk =   0.0100000
        k(   20) = (   0.0500000   0.4500000   0.0000000), wk =   0.0100000
        k(   21) = (   0.1000000   0.1000000   0.0000000), wk =   0.0100000
        k(   22) = (   0.1000000   0.1500000   0.0000000), wk =   0.0100000
        k(   23) = (   0.1000000   0.2000000   0.0000000), wk =   0.0100000
        k(   24) = (   0.1000000   0.2500000   0.0000000), wk =   0.0100000
        k(   25) = (   0.1000000   0.3000000   0.0000000), wk =   0.0100000
        k(   26) = (   0.1000000   0.3500000   0.0000000), wk =   0.0100000
        k(   27) = (   0.1000000   0.4000000   0.0000000), wk =   0.0100000
        k(   28) = (   0.1000000   0.4500000   0.0000000), wk =   0.0100000
        k(   29) = (   0.1500000   0.1500000   0.0000000), wk =   0.0100000
        k(   30) = (   0.1500000   0.2000000   0.0000000), wk =   0.0100000
        k(   31) = (   0.1500000   0.2500000   0.0000000), wk =   0.0100000
        k(   32) = (   0.1500000   0.3000000   0.0000000), wk =   0.0100000
        k(   33) = (   0.1500000   0.3500000   0.0000000), wk =   0.0100000
        k(   34) = (   0.1500000   0.4000000   0.0000000), wk =   0.0100000
        k(   35) = (   0.2000000   0.2000000   0.0000000), wk =   0.0100000
        k(   36) = (   0.2000000   0.2500000   0.0000000), wk =   0.0100000
        k(   37) = (   0.2000000   0.3000000   0.0000000), wk =   0.0100000
        k(   38) = (   0.2000000   0.3500000   0.0000000), wk =   0.0100000
        k(   39) = (   0.2000000   0.4000000   0.0000000), wk =   0.0100000
        k(   40) = (   0.2500000   0.2500000   0.0000000), wk =   0.0100000
        k(   41) = (   0.2500000   0.3000000   0.0000000), wk =   0.0100000
        k(   42) = (   0.2500000   0.3500000   0.0000000), wk =   0.0100000
        k(   43) = (   0.3000000   0.3000000   0.0000000), wk =   0.0100000
        k(   44) = (   0.3000000   0.3500000   0.0000000), wk =   0.0100000
        k(   45) = (   0.0500000   0.0000000   0.0000000), wk =   0.0050000
        k(   46) = (   0.1000000   0.0000000   0.0000000), wk =   0.0050000
        k(   47) = (   0.1500000   0.0000000   0.0000000), wk =   0.0050000
        k(   48) = (   0.2000000   0.0000000   0.0000000), wk =   0.0050000
        k(   49) = (   0.2500000   0.0000000   0.0000000), wk =   0.0050000
        k(   50) = (   0.3000000   0.0000000   0.0000000), wk =   0.0050000
        k(   51) = (   0.3500000  -0.0000000   0.0000000), wk =   0.0050000
        k(   52) = (   0.4000000   0.0000000   0.0000000), wk =   0.0050000
        k(   53) = (   0.4500000  -0.0000000   0.0000000), wk =   0.0050000
        k(   54) = (  -0.5000000   0.0000000   0.0000000), wk =   0.0025000
        k(   55) = (  -0.0500000   0.1000000   0.0000000), wk =   0.0050000
        k(   56) = (  -0.0500000   0.1500000   0.0000000), wk =   0.0100000
        k(   57) = (   0.1500000  -0.0500000   0.0000000), wk =   0.0100000
        k(   58) = (  -0.0500000   0.2000000   0.0000000), wk =   0.0100000
        k(   59) = (   0.2000000  -0.0500000   0.0000000), wk =   0.0100000
        k(   60) = (  -0.0500000   0.2500000   0.0000000), wk =   0.0100000
        k(   61) = (   0.2500000  -0.0500000   0.0000000), wk =   0.0100000
        k(   62) = (  -0.0500000   0.3000000   0.0000000), wk =   0.0100000
        k(   63) = (   0.3000000  -0.0500000   0.0000000), wk =   0.0100000
        k(   64) = (  -0.0500000   0.3500000   0.0000000), wk =   0.0100000
        k(   65) = (   0.3500000  -0.0500000   0.0000000), wk =   0.0100000
        k(   66) = (  -0.0500000   0.4000000   0.0000000), wk =   0.0100000
        k(   67) = (   0.4000000  -0.0500000   0.0000000), wk =   0.0100000
        k(   68) = (  -0.0500000   0.4500000   0.0000000), wk =   0.0100000
        k(   69) = (   0.4500000  -0.0500000   0.0000000), wk =   0.0100000
        k(   70) = (  -0.0500000   0.5000000   0.0000000), wk =   0.0100000
        k(   71) = (   0.5000000  -0.0500000   0.0000000), wk =   0.0100000
        k(   72) = (  -0.1000000   0.2000000   0.0000000), wk =   0.0050000
        k(   73) = (  -0.1000000   0.2500000   0.0000000), wk =   0.0100000
        k(   74) = (   0.2500000  -0.1000000   0.0000000), wk =   0.0100000
        k(   75) = (  -0.1000000   0.3000000   0.0000000), wk =   0.0100000
        k(   76) = (   0.3000000  -0.1000000   0.0000000), wk =   0.0100000
        k(   77) = (  -0.1000000   0.3500000   0.0000000), wk =   0.0100000
        k(   78) = (   0.3500000  -0.1000000   0.0000000), wk =   0.0100000
        k(   79) = (  -0.1000000   0.4000000   0.0000000), wk =   0.0100000
        k(   80) = (   0.4000000  -0.1000000   0.0000000), wk =   0.0100000
        k(   81) = (  -0.1000000   0.4500000   0.0000000), wk =   0.0100000
        k(   82) = (   0.4500000  -0.1000000   0.0000000), wk =   0.0100000
        k(   83) = (  -0.1000000   0.5000000   0.0000000), wk =   0.0100000
        k(   84) = (   0.5000000  -0.1000000   0.0000000), wk =   0.0100000
        k(   85) = (   0.5500000  -0.1000000   0.0000000), wk =   0.0050000
        k(   86) = (  -0.1500000   0.3000000   0.0000000), wk =   0.0050000
        k(   87) = (  -0.1500000   0.3500000   0.0000000), wk =   0.0100000
        k(   88) = (   0.3500000  -0.1500000   0.0000000), wk =   0.0100000
        k(   89) = (  -0.1500000   0.4000000   0.0000000), wk =   0.0100000
        k(   90) = (   0.4000000  -0.1500000   0.0000000), wk =   0.0100000
        k(   91) = (  -0.1500000   0.4500000   0.0000000), wk =   0.0100000
        k(   92) = (   0.4500000  -0.1500000   0.0000000), wk =   0.0100000
        k(   93) = (  -0.1500000   0.5000000   0.0000000), wk =   0.0100000
        k(   94) = (   0.5000000  -0.1500000   0.0000000), wk =   0.0100000
        k(   95) = (  -0.1500000   0.5500000   0.0000000), wk =   0.0100000
        k(   96) = (   0.5500000  -0.1500000   0.0000000), wk =   0.0100000
        k(   97) = (  -0.2000000   0.4000000   0.0000000), wk =   0.0050000
        k(   98) = (  -0.2000000   0.4500000   0.0000000), wk =   0.0100000
        k(   99) = (   0.4500000  -0.2000000   0.0000000), wk =   0.0100000
        k(  100) = (  -0.2000000   0.5000000   0.0000000), wk =   0.0100000
        k(  101) = (   0.5000000  -0.2000000   0.0000000), wk =   0.0100000
        k(  102) = (  -0.2000000   0.5500000   0.0000000), wk =   0.0100000
        k(  103) = (   0.5500000  -0.2000000   0.0000000), wk =   0.0100000
        k(  104) = (   0.6000000  -0.2000000   0.0000000), wk =   0.0050000
        k(  105) = (  -0.2500000   0.5000000   0.0000000), wk =   0.0050000
        k(  106) = (  -0.2500000   0.5500000   0.0000000), wk =   0.0100000
        k(  107) = (   0.5500000  -0.2500000   0.0000000), wk =   0.0100000
        k(  108) = (  -0.2500000   0.6000000   0.0000000), wk =   0.0100000
        k(  109) = (   0.6000000  -0.2500000   0.0000000), wk =   0.0100000
        k(  110) = (  -0.3000000   0.6000000   0.0000000), wk =   0.0050000
        k(  111) = (   0.6500000  -0.3000000   0.0000000), wk =   0.0050000

     Dense  grid:   242833 G-vectors     FFT dimensions: (  50,  50, 240)

     Smooth grid:    85865 G-vectors     FFT dimensions: (  36,  36, 162)

     Dynamical RAM for                 wfc:       0.28 MB

     Dynamical RAM for     wfc (w. buffer):      62.07 MB

     Dynamical RAM for           str. fact:       0.74 MB

     Dynamical RAM for           local pot:       0.00 MB

     Dynamical RAM for          nlocal pot:       0.88 MB

     Dynamical RAM for                qrad:       4.06 MB

     Dynamical RAM for          rho,v,vnew:       4.97 MB

     Dynamical RAM for           G-vectors:       1.46 MB

     Dynamical RAM for          h,s,v(r/c):       0.01 MB

     Dynamical RAM for          <psi|beta>:       0.01 MB

     Dynamical RAM for                 psi:       0.56 MB

     Dynamical RAM for                hpsi:       0.56 MB

     Dynamical RAM for                spsi:       0.56 MB

     Dynamical RAM for      wfcinit/wfcrot:       0.70 MB

     Dynamical RAM for           addusdens:      70.05 MB

     Estimated static dynamical RAM per process >      78.04 MB

     Estimated max dynamical RAM per process >     148.09 MB

     Estimated total dynamical RAM >       1.45 GB
     Generating pointlists ...
     new r_m :   0.3127 (alat units)  1.8808 (a.u.) for type    1
     new r_m :   0.3127 (alat units)  1.8808 (a.u.) for type    2

     The potential is recalculated from file :
     ./outdir/MoS2.save/charge-density


     negative rho (up, down):  5.015E-05 5.015E-05
     Starting wfcs are   21 randomized atomic wfcs

     Band Structure Calculation
     Davidson diagonalization with overlap

     Computing kpt #:     1  of   222
     total cpu time spent up to now is        1.3 secs

     Computing kpt #:     2  of   222
     total cpu time spent up to now is        1.8 secs

     Computing kpt #:     3  of   222
     total cpu time spent up to now is        2.2 secs

     Computing kpt #:     4  of   222
     total cpu time spent up to now is        2.7 secs

     Computing kpt #:     5  of   222
     total cpu time spent up to now is        3.1 secs

     Computing kpt #:     6  of   222
     total cpu time spent up to now is        3.6 secs

     Computing kpt #:     7  of   222
     total cpu time spent up to now is        4.1 secs

     Computing kpt #:     8  of   222
     total cpu time spent up to now is        4.5 secs

     Computing kpt #:     9  of   222
     total cpu time spent up to now is        5.0 secs

     Computing kpt #:    10  of   222
     total cpu time spent up to now is        5.5 secs

     Computing kpt #:    11  of   222
     total cpu time spent up to now is        6.0 secs

     Computing kpt #:    12  of   222
     total cpu time spent up to now is        6.5 secs

     Computing kpt #:    13  of   222
     total cpu time spent up to now is        6.9 secs

     Computing kpt #:    14  of   222
     total cpu time spent up to now is        7.4 secs

     Computing kpt #:    15  of   222
     total cpu time spent up to now is        7.8 secs

     Computing kpt #:    16  of   222
     total cpu time spent up to now is        8.3 secs

     Computing kpt #:    17  of   222
     total cpu time spent up to now is        8.8 secs

     Computing kpt #:    18  of   222
     total cpu time spent up to now is        9.2 secs

     Computing kpt #:    19  of   222
     total cpu time spent up to now is        9.7 secs

     Computing kpt #:    20  of   222
     total cpu time spent up to now is       10.2 secs

     Computing kpt #:    21  of   222
     total cpu time spent up to now is       10.7 secs

     Computing kpt #:    22  of   222
     total cpu time spent up to now is       11.1 secs

     Computing kpt #:    23  of   222
     total cpu time spent up to now is       11.6 secs

     Computing kpt #:    24  of   222
     total cpu time spent up to now is       12.0 secs

     Computing kpt #:    25  of   222
     total cpu time spent up to now is       12.5 secs

     Computing kpt #:    26  of   222
     total cpu time spent up to now is       13.0 secs

     Computing kpt #:    27  of   222
     total cpu time spent up to now is       13.5 secs

     Computing kpt #:    28  of   222
     total cpu time spent up to now is       14.0 secs

     Computing kpt #:    29  of   222
     total cpu time spent up to now is       14.4 secs

     Computing kpt #:    30  of   222
     total cpu time spent up to now is       14.9 secs

     Computing kpt #:    31  of   222
     total cpu time spent up to now is       15.4 secs

     Computing kpt #:    32  of   222
     total cpu time spent up to now is       15.8 secs

     Computing kpt #:    33  of   222
     total cpu time spent up to now is       16.3 secs

     Computing kpt #:    34  of   222
     total cpu time spent up to now is       16.8 secs

     Computing kpt #:    35  of   222
     total cpu time spent up to now is       17.3 secs

     Computing kpt #:    36  of   222
     total cpu time spent up to now is       17.8 secs

     Computing kpt #:    37  of   222
     total cpu time spent up to now is       18.2 secs

     Computing kpt #:    38  of   222
     total cpu time spent up to now is       18.7 secs

     Computing kpt #:    39  of   222
     total cpu time spent up to now is       19.2 secs

     Computing kpt #:    40  of   222
     total cpu time spent up to now is       19.7 secs

     Computing kpt #:    41  of   222
     total cpu time spent up to now is       20.2 secs

     Computing kpt #:    42  of   222
     total cpu time spent up to now is       20.6 secs

     Computing kpt #:    43  of   222
     total cpu time spent up to now is       21.1 secs

     Computing kpt #:    44  of   222
     total cpu time spent up to now is       21.6 secs

     Computing kpt #:    45  of   222
     total cpu time spent up to now is       22.1 secs

     Computing kpt #:    46  of   222
     total cpu time spent up to now is       22.5 secs

     Computing kpt #:    47  of   222
     total cpu time spent up to now is       23.0 secs

     Computing kpt #:    48  of   222
     total cpu time spent up to now is       23.4 secs

     Computing kpt #:    49  of   222
     total cpu time spent up to now is       23.9 secs

     Computing kpt #:    50  of   222
     total cpu time spent up to now is       24.4 secs

     Computing kpt #:    51  of   222
     total cpu time spent up to now is       24.8 secs

     Computing kpt #:    52  of   222
     total cpu time spent up to now is       25.3 secs

     Computing kpt #:    53  of   222
     total cpu time spent up to now is       25.8 secs

     Computing kpt #:    54  of   222
     total cpu time spent up to now is       26.3 secs

     Computing kpt #:    55  of   222
     total cpu time spent up to now is       26.7 secs

     Computing kpt #:    56  of   222
     total cpu time spent up to now is       27.2 secs

     Computing kpt #:    57  of   222
     total cpu time spent up to now is       27.6 secs

     Computing kpt #:    58  of   222
     total cpu time spent up to now is       28.1 secs

     Computing kpt #:    59  of   222
     total cpu time spent up to now is       28.6 secs

     Computing kpt #:    60  of   222
     total cpu time spent up to now is       29.0 secs

     Computing kpt #:    61  of   222
     total cpu time spent up to now is       29.5 secs

     Computing kpt #:    62  of   222
     total cpu time spent up to now is       29.9 secs

     Computing kpt #:    63  of   222
     total cpu time spent up to now is       30.4 secs

     Computing kpt #:    64  of   222
     total cpu time spent up to now is       30.9 secs

     Computing kpt #:    65  of   222
     total cpu time spent up to now is       31.3 secs

     Computing kpt #:    66  of   222
     total cpu time spent up to now is       31.8 secs

     Computing kpt #:    67  of   222
     total cpu time spent up to now is       32.3 secs

     Computing kpt #:    68  of   222
     total cpu time spent up to now is       32.8 secs

     Computing kpt #:    69  of   222
     total cpu time spent up to now is       33.3 secs

     Computing kpt #:    70  of   222
     total cpu time spent up to now is       33.7 secs

     Computing kpt #:    71  of   222
     total cpu time spent up to now is       34.2 secs

     Computing kpt #:    72  of   222
     total cpu time spent up to now is       34.7 secs

     Computing kpt #:    73  of   222
     total cpu time spent up to now is       35.1 secs

     Computing kpt #:    74  of   222
     total cpu time spent up to now is       35.6 secs

     Computing kpt #:    75  of   222
     total cpu time spent up to now is       36.1 secs

     Computing kpt #:    76  of   222
     total cpu time spent up to now is       36.5 secs

     Computing kpt #:    77  of   222
     total cpu time spent up to now is       37.0 secs

     Computing kpt #:    78  of   222
     total cpu time spent up to now is       37.4 secs

     Computing kpt #:    79  of   222
     total cpu time spent up to now is       37.9 secs

     Computing kpt #:    80  of   222
     total cpu time spent up to now is       38.4 secs

     Computing kpt #:    81  of   222
     total cpu time spent up to now is       38.9 secs

     Computing kpt #:    82  of   222
     total cpu time spent up to now is       39.3 secs

     Computing kpt #:    83  of   222
     total cpu time spent up to now is       39.8 secs

     Computing kpt #:    84  of   222
     total cpu time spent up to now is       40.3 secs

     Computing kpt #:    85  of   222
     total cpu time spent up to now is       40.8 secs

     Computing kpt #:    86  of   222
     total cpu time spent up to now is       41.3 secs

     Computing kpt #:    87  of   222
     total cpu time spent up to now is       41.7 secs

     Computing kpt #:    88  of   222
     total cpu time spent up to now is       42.2 secs

     Computing kpt #:    89  of   222
     total cpu time spent up to now is       42.6 secs

     Computing kpt #:    90  of   222
     total cpu time spent up to now is       43.1 secs

     Computing kpt #:    91  of   222
     total cpu time spent up to now is       43.6 secs

     Computing kpt #:    92  of   222
     total cpu time spent up to now is       44.1 secs

     Computing kpt #:    93  of   222
     total cpu time spent up to now is       44.5 secs

     Computing kpt #:    94  of   222
     total cpu time spent up to now is       45.0 secs

     Computing kpt #:    95  of   222
     total cpu time spent up to now is       45.5 secs

     Computing kpt #:    96  of   222
     total cpu time spent up to now is       46.0 secs

     Computing kpt #:    97  of   222
     total cpu time spent up to now is       46.4 secs

     Computing kpt #:    98  of   222
     total cpu time spent up to now is       46.9 secs

     Computing kpt #:    99  of   222
     total cpu time spent up to now is       47.4 secs

     Computing kpt #:   100  of   222
     total cpu time spent up to now is       47.9 secs

     Computing kpt #:   101  of   222
     total cpu time spent up to now is       48.3 secs

     Computing kpt #:   102  of   222
     total cpu time spent up to now is       48.8 secs

     Computing kpt #:   103  of   222
     total cpu time spent up to now is       49.3 secs

     Computing kpt #:   104  of   222
     total cpu time spent up to now is       49.8 secs

     Computing kpt #:   105  of   222
     total cpu time spent up to now is       50.2 secs

     Computing kpt #:   106  of   222
     total cpu time spent up to now is       50.7 secs

     Computing kpt #:   107  of   222
     total cpu time spent up to now is       51.2 secs

     Computing kpt #:   108  of   222
     total cpu time spent up to now is       51.6 secs

     Computing kpt #:   109  of   222
     total cpu time spent up to now is       52.1 secs

     Computing kpt #:   110  of   222
     total cpu time spent up to now is       52.6 secs

     Computing kpt #:   111  of   222
     total cpu time spent up to now is       53.1 secs

     Computing kpt #:   112  of   222
     total cpu time spent up to now is       53.5 secs

     Computing kpt #:   113  of   222
     total cpu time spent up to now is       54.0 secs

     Computing kpt #:   114  of   222
     total cpu time spent up to now is       54.4 secs

     Computing kpt #:   115  of   222
     total cpu time spent up to now is       54.9 secs

     Computing kpt #:   116  of   222
     total cpu time spent up to now is       55.3 secs

     Computing kpt #:   117  of   222
     total cpu time spent up to now is       55.8 secs

     Computing kpt #:   118  of   222
     total cpu time spent up to now is       56.3 secs

     Computing kpt #:   119  of   222
     total cpu time spent up to now is       56.7 secs

     Computing kpt #:   120  of   222
     total cpu time spent up to now is       57.2 secs

     Computing kpt #:   121  of   222
     total cpu time spent up to now is       57.7 secs

     Computing kpt #:   122  of   222
     total cpu time spent up to now is       58.1 secs

     Computing kpt #:   123  of   222
     total cpu time spent up to now is       58.6 secs

     Computing kpt #:   124  of   222
     total cpu time spent up to now is       59.1 secs

     Computing kpt #:   125  of   222
     total cpu time spent up to now is       59.5 secs

     Computing kpt #:   126  of   222
     total cpu time spent up to now is       60.0 secs

     Computing kpt #:   127  of   222
     total cpu time spent up to now is       60.5 secs

     Computing kpt #:   128  of   222
     total cpu time spent up to now is       60.9 secs

     Computing kpt #:   129  of   222
     total cpu time spent up to now is       61.4 secs

     Computing kpt #:   130  of   222
     total cpu time spent up to now is       61.9 secs

     Computing kpt #:   131  of   222
     total cpu time spent up to now is       62.4 secs

     Computing kpt #:   132  of   222
     total cpu time spent up to now is       62.8 secs

     Computing kpt #:   133  of   222
     total cpu time spent up to now is       63.3 secs

     Computing kpt #:   134  of   222
     total cpu time spent up to now is       63.7 secs

     Computing kpt #:   135  of   222
     total cpu time spent up to now is       64.2 secs

     Computing kpt #:   136  of   222
     total cpu time spent up to now is       64.7 secs

     Computing kpt #:   137  of   222
     total cpu time spent up to now is       65.2 secs

     Computing kpt #:   138  of   222
     total cpu time spent up to now is       65.7 secs

     Computing kpt #:   139  of   222
     total cpu time spent up to now is       66.1 secs

     Computing kpt #:   140  of   222
     total cpu time spent up to now is       66.6 secs

     Computing kpt #:   141  of   222
     total cpu time spent up to now is       67.1 secs

     Computing kpt #:   142  of   222
     total cpu time spent up to now is       67.5 secs

     Computing kpt #:   143  of   222
     total cpu time spent up to now is       68.0 secs

     Computing kpt #:   144  of   222
     total cpu time spent up to now is       68.5 secs

     Computing kpt #:   145  of   222
     total cpu time spent up to now is       69.0 secs

     Computing kpt #:   146  of   222
     total cpu time spent up to now is       69.4 secs

     Computing kpt #:   147  of   222
     total cpu time spent up to now is       69.9 secs

     Computing kpt #:   148  of   222
     total cpu time spent up to now is       70.4 secs

     Computing kpt #:   149  of   222
     total cpu time spent up to now is       70.8 secs

     Computing kpt #:   150  of   222
     total cpu time spent up to now is       71.3 secs

     Computing kpt #:   151  of   222
     total cpu time spent up to now is       71.8 secs

     Computing kpt #:   152  of   222
     total cpu time spent up to now is       72.3 secs

     Computing kpt #:   153  of   222
     total cpu time spent up to now is       72.7 secs

     Computing kpt #:   154  of   222
     total cpu time spent up to now is       73.2 secs

     Computing kpt #:   155  of   222
     total cpu time spent up to now is       73.7 secs

     Computing kpt #:   156  of   222
     total cpu time spent up to now is       74.1 secs

     Computing kpt #:   157  of   222
     total cpu time spent up to now is       74.6 secs

     Computing kpt #:   158  of   222
     total cpu time spent up to now is       75.1 secs

     Computing kpt #:   159  of   222
     total cpu time spent up to now is       75.5 secs

     Computing kpt #:   160  of   222
     total cpu time spent up to now is       76.0 secs

     Computing kpt #:   161  of   222
     total cpu time spent up to now is       76.4 secs

     Computing kpt #:   162  of   222
     total cpu time spent up to now is       76.9 secs

     Computing kpt #:   163  of   222
     total cpu time spent up to now is       77.4 secs

     Computing kpt #:   164  of   222
     total cpu time spent up to now is       77.8 secs

     Computing kpt #:   165  of   222
     total cpu time spent up to now is       78.3 secs

     Computing kpt #:   166  of   222
     total cpu time spent up to now is       78.8 secs

     Computing kpt #:   167  of   222
     total cpu time spent up to now is       79.2 secs

     Computing kpt #:   168  of   222
     total cpu time spent up to now is       79.7 secs

     Computing kpt #:   169  of   222
     total cpu time spent up to now is       80.2 secs

     Computing kpt #:   170  of   222
     total cpu time spent up to now is       80.6 secs

     Computing kpt #:   171  of   222
     total cpu time spent up to now is       81.1 secs

     Computing kpt #:   172  of   222
     total cpu time spent up to now is       81.5 secs

     Computing kpt #:   173  of   222
     total cpu time spent up to now is       82.0 secs

     Computing kpt #:   174  of   222
     total cpu time spent up to now is       82.5 secs

     Computing kpt #:   175  of   222
     total cpu time spent up to now is       82.9 secs

     Computing kpt #:   176  of   222
     total cpu time spent up to now is       83.4 secs

     Computing kpt #:   177  of   222
     total cpu time spent up to now is       83.9 secs

     Computing kpt #:   178  of   222
     total cpu time spent up to now is       84.3 secs

     Computing kpt #:   179  of   222
     total cpu time spent up to now is       84.8 secs

     Computing kpt #:   180  of   222
     total cpu time spent up to now is       85.3 secs

     Computing kpt #:   181  of   222
     total cpu time spent up to now is       85.8 secs

     Computing kpt #:   182  of   222
     total cpu time spent up to now is       86.3 secs

     Computing kpt #:   183  of   222
     total cpu time spent up to now is       86.7 secs

     Computing kpt #:   184  of   222
     total cpu time spent up to now is       87.2 secs

     Computing kpt #:   185  of   222
     total cpu time spent up to now is       87.6 secs

     Computing kpt #:   186  of   222
     total cpu time spent up to now is       88.1 secs

     Computing kpt #:   187  of   222
     total cpu time spent up to now is       88.6 secs

     Computing kpt #:   188  of   222
     total cpu time spent up to now is       89.0 secs

     Computing kpt #:   189  of   222
     total cpu time spent up to now is       89.5 secs

     Computing kpt #:   190  of   222
     total cpu time spent up to now is       90.0 secs

     Computing kpt #:   191  of   222
     total cpu time spent up to now is       90.4 secs

     Computing kpt #:   192  of   222
     total cpu time spent up to now is       90.9 secs

     Computing kpt #:   193  of   222
     total cpu time spent up to now is       91.4 secs

     Computing kpt #:   194  of   222
     total cpu time spent up to now is       91.9 secs

     Computing kpt #:   195  of   222
     total cpu time spent up to now is       92.3 secs

     Computing kpt #:   196  of   222
     total cpu time spent up to now is       92.8 secs

     Computing kpt #:   197  of   222
     total cpu time spent up to now is       93.3 secs

     Computing kpt #:   198  of   222
     total cpu time spent up to now is       93.7 secs

     Computing kpt #:   199  of   222
     total cpu time spent up to now is       94.2 secs

     Computing kpt #:   200  of   222
     total cpu time spent up to now is       94.7 secs

     Computing kpt #:   201  of   222
     total cpu time spent up to now is       95.1 secs

     Computing kpt #:   202  of   222
     total cpu time spent up to now is       95.6 secs

     Computing kpt #:   203  of   222
     total cpu time spent up to now is       96.1 secs

     Computing kpt #:   204  of   222
     total cpu time spent up to now is       96.5 secs

     Computing kpt #:   205  of   222
     total cpu time spent up to now is       97.0 secs

     Computing kpt #:   206  of   222
     total cpu time spent up to now is       97.5 secs

     Computing kpt #:   207  of   222
     total cpu time spent up to now is       98.0 secs

     Computing kpt #:   208  of   222
     total cpu time spent up to now is       98.5 secs

     Computing kpt #:   209  of   222
     total cpu time spent up to now is       98.9 secs

     Computing kpt #:   210  of   222
     total cpu time spent up to now is       99.4 secs

     Computing kpt #:   211  of   222
     total cpu time spent up to now is       99.9 secs

     Computing kpt #:   212  of   222
     total cpu time spent up to now is      100.3 secs

     Computing kpt #:   213  of   222
     total cpu time spent up to now is      100.8 secs

     Computing kpt #:   214  of   222
     total cpu time spent up to now is      101.3 secs

     Computing kpt #:   215  of   222
     total cpu time spent up to now is      101.8 secs

     Computing kpt #:   216  of   222
     total cpu time spent up to now is      102.2 secs

     Computing kpt #:   217  of   222
     total cpu time spent up to now is      102.7 secs

     Computing kpt #:   218  of   222
     total cpu time spent up to now is      103.2 secs

     Computing kpt #:   219  of   222
     total cpu time spent up to now is      103.7 secs

     Computing kpt #:   220  of   222
     total cpu time spent up to now is      104.1 secs

     Computing kpt #:   221  of   222
     total cpu time spent up to now is      104.6 secs

     Computing kpt #:   222  of   222
     total cpu time spent up to now is      105.1 secs

     ethr =  3.85E-12,  avg # of iterations = 33.4

     total cpu time spent up to now is      105.1 secs

     End of band structure calculation

 ------ SPIN UP ------------


          k = 0.0000 0.0000 0.0000 ( 10755 PWs)   bands (ev):

   -60.2158 -34.3464 -34.1430 -34.1429 -13.3963 -12.0959  -4.9147  -1.9205
    -1.9196  -1.0912  -0.8198  -0.8160   0.6769   3.4354   3.4397   3.6826
     3.6844

     occupation numbers 
     1.0000   1.0000   1.0000   1.0000   1.0000   1.0000   1.0000   1.0000
     1.0000   1.0000   1.0000   1.0000   1.0000   0.0000   0.0000   0.0000
     0.0000

          k = 0.0000 0.0577 0.0000 ( 10777 PWs)   bands (ev):

   -60.2149 -34.3445 -34.1523 -34.1450 -13.3592 -12.0806  -4.8717  -2.0056
    -1.8815  -1.3372  -0.8781  -0.6268   0.6602   3.3808   3.5040   3.5718
     3.6406

     occupation numbers 
     1.0000   1.0000   1.0000   1.0000   1.0000   1.0000   1.0000   1.0000
     1.0000   1.0000   1.0000   1.0000   1.0000   0.0000   0.0000   0.0000
     0.0000

          k = 0.0000 0.1155 0.0000 ( 10783 PWs)   bands (ev):

   -60.2123 -34.3393 -34.1791 -34.1512 -13.2501 -12.0356  -4.7492  -2.2388
    -1.7680  -1.7049  -1.0445  -0.4374   0.5975   3.2707   3.3126   3.5224
     3.6862

     occupation numbers 
     1.0000   1.0000   1.0000   1.0000   1.0000   1.0000   1.0000   1.0000
     1.0000   1.0000   1.0000   1.0000   1.0000   0.0000   0.0000   0.0000
     0.0000

          k = 0.0000 0.1732 0.0000 ( 10797 PWs)   bands (ev):

   -60.2082 -34.3311 -34.2207 -34.1607 -13.0752 -11.9635  -4.5693  -2.5590
    -2.0920  -1.5886  -1.2774  -0.3830   0.4589   3.0460   3.2329   3.3587
     3.9360

     occupation numbers 
     1.0000   1.0000   1.0000   1.0000   1.0000   1.0000   1.0000   1.0000
     1.0000   1.0000   1.0000   1.0000   1.0000   0.0000   0.0000   0.0000
     0.0000

          k = 0.0000 0.2309 0.0000 ( 10765 PWs)   bands (ev):

   -60.2030 -34.3208 -34.2727 -34.1726 -12.8450 -11.8690  -4.3831  -2.8862
    -2.4854  -1.5370  -1.3585  -0.4698   0.2310   2.8805   3.1848   3.3411
     4.2033

     occupation numbers 
     1.0000   1.0000   1.0000   1.0000   1.0000   1.0000   1.0000   1.0000
     1.0000   1.0000   1.0000   1.0000   1.0000   0.0000   0.0000   0.0000
     0.0000

          k = 0.0000 0.2887 0.0000 ( 10769 PWs)   bands (ev):

   -60.1973 -34.3299 -34.3093 -34.1858 -12.5747 -11.7587  -4.2924  -3.1190
    -2.8768  -1.7924  -1.0998  -0.6413  -0.0363   2.8496   3.0331   3.5761
     4.4495

     occupation numbers 
     1.0000   1.0000   1.0000   1.0000   1.0000   1.0000   1.0000   1.0000
     1.0000   1.0000   1.0000   1.0000   1.0000   0.0000   0.0000   0.0000
     0.0000

          k = 0.0000 0.3464 0.0000 ( 10747 PWs)   bands (ev):

   -60.1915 -34.3866 -34.2978 -34.1990 -12.2847 -11.6419  -4.3926  -3.2516
    -3.1956  -2.0223  -0.8405  -0.8282  -0.2360   2.9256   2.9278   3.8702
     4.6521

     occupation numbers 
     1.0000   1.0000   1.0000   1.0000   1.0000   1.0000   1.0000   1.0000
     1.0000   1.0000   1.0000   1.0000   1.0000   0.0000   0.0000   0.0000
     0.0000

          k = 0.0000 0.4041 0.0000 ( 10733 PWs)   bands (ev):

   -60.1863 -34.4372 -34.2874 -34.2109 -12.0020 -11.5299  -4.6167  -3.5864
    -3.2172  -2.2125  -0.9866  -0.6109  -0.2766   2.8798   3.0653   4.1528
     4.8027

     occupation numbers 
     1.0000   1.0000   1.0000   1.0000   1.0000   1.0000   1.0000   1.0000
     1.0000   1.0000   1.0000   1.0000   1.0000   0.0000   0.0000   0.0000
     0.0000

          k = 0.0000 0.4619 0.0000 ( 10731 PWs)   bands (ev):

   -60.1822 -34.4772 -34.2791 -34.2203 -11.7595 -11.4361  -4.8460  -3.8534
    -3.2741  -2.3538  -1.0999  -0.4359  -0.1662   2.8813   3.2282   4.3702
     4.9034

     occupation numbers 
     1.0000   1.0000   1.0000   1.0000   1.0000   1.0000   1.0000   1.0000
     1.0000   1.0000   1.0000   1.0000   1.0000   0.0000   0.0000   0.0000
     0.0000

          k = 0.0000 0.5196 0.0000 ( 10700 PWs)   bands (ev):

   -60.1796 -34.5027 -34.2738 -34.2263 -11.5934 -11.3731  -5.0103  -4.0261
    -3.3418  -2.4407  -1.1660  -0.3291  -0.0156   2.9051   3.3697   4.4981
     4.9601

     occupation numbers 
     1.0000   1.0000   1.0000   1.0000   1.0000   1.0000   1.0000   1.0000
     1.0000   1.0000   1.0000   1.0000   1.0000   0.0000   0.0000   0.0000
     0.0000

          k = 0.0000-0.5774 0.0000 ( 10718 PWs)   bands (ev):

   -60.1787 -34.5115 -34.2719 -34.2284 -11.5339 -11.3509  -5.0698  -4.0859
    -3.3709  -2.4700  -1.1876  -0.2936   0.0519   2.9180   3.4291   4.5388
     4.9783

     occupation numbers 
     1.0000   1.0000   1.0000   1.0000   1.0000   1.0000   1.0000   1.0000
     1.0000   1.0000   1.0000   1.0000   1.0000   0.0000   0.0000   0.0000
     0.0000

          k = 0.0500 0.0866 0.0000 ( 10769 PWs)   bands (ev):

   -60.2132 -34.3410 -34.1701 -34.1494 -13.2861 -12.0504  -4.7889  -2.1647
    -1.8057  -1.5968  -1.0111  -0.4629   0.6206   3.2872   3.3917   3.5557
     3.6380

     occupation numbers 
     1.0000   1.0000   1.0000   1.0000   1.0000   1.0000   1.0000   1.0000
     1.0000   1.0000   1.0000   1.0000   1.0000   0.0000   0.0000   0.0000
     0.0000

          k = 0.0500 0.1443 0.0000 ( 10769 PWs)   bands (ev):

   -60.2098 -34.3343 -34.2039 -34.1576 -13.1441 -11.9918  -4.6363  -2.4385
    -1.9325  -1.6624  -1.2487  -0.3391   0.5198   3.1356   3.1965   3.4108
     3.8681

     occupation numbers 
     1.0000   1.0000   1.0000   1.0000   1.0000   1.0000   1.0000   1.0000
     1.0000   1.0000   1.0000   1.0000   1.0000   0.0000   0.0000   0.0000
     0.0000

          k = 0.0500 0.2021 0.0000 ( 10788 PWs)   bands (ev):

   -60.2052 -34.3250 -34.2500 -34.1690 -12.9414 -11.9084  -4.4481  -2.7586
    -2.2951  -1.5303  -1.4654  -0.3411   0.3342   2.9198   3.2158   3.2477
     4.1398

     occupation numbers 
     1.0000   1.0000   1.0000   1.0000   1.0000   1.0000   1.0000   1.0000
     1.0000   1.0000   1.0000   1.0000   1.0000   0.0000   0.0000   0.0000
     0.0000

          k = 0.0500 0.2598 0.0000 ( 10754 PWs)   bands (ev):

   -60.1997 -34.3141 -34.3038 -34.1824 -12.6908 -11.8056  -4.2989  -3.0350
    -2.6765  -1.8028  -1.2388  -0.4640   0.0832   2.8076   3.1107   3.3785
     4.4043

     occupation numbers 
     1.0000   1.0000   1.0000   1.0000   1.0000   1.0000   1.0000   1.0000
     1.0000   1.0000   1.0000   1.0000   1.0000   0.0000   0.0000   0.0000
     0.0000

          k = 0.0500 0.3175 0.0000 ( 10744 PWs)   bands (ev):

   -60.1940 -34.3599 -34.3026 -34.1965 -12.4099 -11.6913  -4.3049  -3.1695
    -3.0644  -2.0343  -1.0188  -0.6507  -0.1417   2.7889   3.0410   3.6419
     4.6278

     occupation numbers 
     1.0000   1.0000   1.0000   1.0000   1.0000   1.0000   1.0000   1.0000
     1.0000   1.0000   1.0000   1.0000   1.0000   0.0000   0.0000   0.0000
     0.0000

          k = 0.0500 0.3753 0.0000 ( 10751 PWs)   bands (ev):

   -60.1885 -34.4127 -34.2917 -34.2098 -12.1222 -11.5759  -4.4813  -3.4324
    -3.1894  -2.2146  -0.8448  -0.8429  -0.2210   2.8164   3.0662   3.9392
     4.7900

     occupation numbers 
     1.0000   1.0000   1.0000   1.0000   1.0000   1.0000   1.0000   1.0000
     1.0000   1.0000   1.0000   1.0000   1.0000   0.0000   0.0000   0.0000
     0.0000

          k = 0.0500 0.4330 0.0000 ( 10738 PWs)   bands (ev):

   -60.1838 -34.4574 -34.2823 -34.2211 -11.8577 -11.4718  -4.7120  -3.7475
    -3.2237  -2.3451  -1.0038  -0.7092  -0.1351   2.8612   3.1725   4.2147
     4.8799

     occupation numbers 
     1.0000   1.0000   1.0000   1.0000   1.0000   1.0000   1.0000   1.0000
     1.0000   1.0000   1.0000   1.0000   1.0000   0.0000   0.0000   0.0000
     0.0000

          k = 0.0500 0.4907 0.0000 ( 10700 PWs)   bands (ev):

   -60.1804 -34.4896 -34.2755 -34.2293 -11.6511 -11.3922  -4.9077  -3.9780
    -3.2948  -2.4295  -1.1159  -0.5921   0.0172   2.9038   3.3156   4.4331
     4.8995

     occupation numbers 
     1.0000   1.0000   1.0000   1.0000   1.0000   1.0000   1.0000   1.0000
     1.0000   1.0000   1.0000   1.0000   1.0000   0.0000   0.0000   0.0000
     0.0000

          k = 0.0500 0.5485 0.0000 ( 10703 PWs)   bands (ev):

   -60.1787 -34.5065 -34.2719 -34.2336 -11.5366 -11.3489  -5.0185  -4.0998
    -3.3502  -2.4711  -1.1727  -0.5236   0.1319   2.9265   3.4263   4.5676
     4.8772

     occupation numbers 
     1.0000   1.0000   1.0000   1.0000   1.0000   1.0000   1.0000   1.0000
     1.0000   1.0000   1.0000   1.0000   1.0000   0.0000   0.0000   0.0000
     0.0000

          k = 0.1000 0.1732 0.0000 ( 10777 PWs)   bands (ev):

   -60.2059 -34.3265 -34.2413 -34.1687 -12.9742 -11.9217  -4.4719  -2.7083
    -2.1959  -1.5900  -1.5076  -0.2566   0.3706   2.9373   3.1412   3.2640
     4.1379

     occupation numbers 
     1.0000   1.0000   1.0000   1.0000   1.0000   1.0000   1.0000   1.0000
     1.0000   1.0000   1.0000   1.0000   1.0000   0.0000   0.0000   0.0000
     0.0000

          k = 0.1000 0.2309 0.0000 ( 10766 PWs)   bands (ev):

   -60.2010 -34.3167 -34.2877 -34.1830 -12.7507 -11.8295  -4.3071  -2.9723
    -2.4964  -1.9432  -1.3335  -0.2773   0.1553   2.7743   3.1523   3.1956
     4.4213

     occupation numbers 
     1.0000   1.0000   1.0000   1.0000   1.0000   1.0000   1.0000   1.0000
     1.0000   1.0000   1.0000   1.0000   1.0000   0.0000   0.0000   0.0000
     0.0000

          k = 0.1000 0.2887 0.0000 ( 10756 PWs)   bands (ev):

   -60.1955 -34.3387 -34.3057 -34.1989 -12.4885 -11.7219  -4.2416  -3.1318
    -2.8652  -2.2038  -1.1892  -0.4084  -0.0581   2.6873   3.1101   3.3761
     4.6686

     occupation numbers 
     1.0000   1.0000   1.0000   1.0000   1.0000   1.0000   1.0000   1.0000
     1.0000   1.0000   1.0000   1.0000   1.0000   0.0000   0.0000   0.0000
     0.0000

          k = 0.1000 0.3464 0.0000 ( 10758 PWs)   bands (ev):

   -60.1900 -34.3891 -34.2948 -34.2149 -12.2080 -11.6076  -4.3459  -3.2699
    -3.1502  -2.3572  -1.1231  -0.6055  -0.1547   2.6980   3.1269   3.6391
     4.8484

     occupation numbers 
     1.0000   1.0000   1.0000   1.0000   1.0000   1.0000   1.0000   1.0000
     1.0000   1.0000   1.0000   1.0000   1.0000   0.0000   0.0000   0.0000
     0.0000

          k = 0.1000 0.4041 0.0000 ( 10742 PWs)   bands (ev):

   -60.1851 -34.4342 -34.2849 -34.2294 -11.9354 -11.4978  -4.5438  -3.6447
    -3.1490  -2.4377  -1.0957  -0.8166  -0.0983   2.7940   3.1802   3.9276
     4.9411

     occupation numbers 
     1.0000   1.0000   1.0000   1.0000   1.0000   1.0000   1.0000   1.0000
     1.0000   1.0000   1.0000   1.0000   1.0000   0.0000   0.0000   0.0000
     0.0000

          k = 0.1000 0.4619 0.0000 ( 10721 PWs)   bands (ev):

   -60.1812 -34.4698 -34.2770 -34.2408 -11.7025 -11.4055  -4.7382  -3.9430
    -3.2089  -2.4718  -1.0390  -1.0002   0.0430   2.8974   3.2821   4.2005
     4.9399

     occupation numbers 
     1.0000   1.0000   1.0000   1.0000   1.0000   1.0000   1.0000   1.0000
     1.0000   1.0000   1.0000   1.0000   1.0000   0.0000   0.0000   0.0000
     0.0000

          k = 0.1000 0.5196 0.0000 ( 10713 PWs)   bands (ev):

   -60.1787 -34.4925 -34.2720 -34.2481 -11.5436 -11.3435  -4.8752  -4.1345
    -3.2879  -2.4803  -1.1255  -0.9777   0.1897   2.9283   3.4313   4.4324
     4.8603

     occupation numbers 
     1.0000   1.0000   1.0000   1.0000   1.0000   1.0000   1.0000   1.0000
     1.0000   1.0000   1.0000   1.0000   1.0000   0.0000   0.0000   0.0000
     0.0000

          k = 0.1000 0.5774 0.0000 ( 10698 PWs)   bands (ev):

   -60.1778 -34.5004 -34.2702 -34.2507 -11.4869 -11.3217  -4.9245  -4.2004
    -3.3223  -2.4809  -1.1701  -0.9532   0.2540   2.9257   3.5074   4.5582
     4.7822

     occupation numbers 
     1.0000   1.0000   1.0000   1.0000   1.0000   1.0000   1.0000   1.0000
     1.0000   1.0000   1.0000   1.0000   1.0000   0.0000   0.0000   0.0000
     0.0000

          k = 0.1500 0.2598 0.0000 ( 10761 PWs)   bands (ev):

   -60.1960 -34.3302 -34.3068 -34.2009 -12.5153 -11.7322  -4.2186  -3.1138
    -2.7417  -2.3297  -1.2562  -0.2984  -0.0271   2.6495   3.1315   3.2596
     4.6910

     occupation numbers 
     1.0000   1.0000   1.0000   1.0000   1.0000   1.0000   1.0000   1.0000
     1.0000   1.0000   1.0000   1.0000   1.0000   0.0000   0.0000   0.0000
     0.0000

          k = 0.1500 0.3175 0.0000 ( 10754 PWs)   bands (ev):

   -60.1909 -34.3736 -34.2964 -34.2207 -12.2526 -11.6236  -4.2592  -3.1300
    -3.1199  -2.5139  -1.2984  -0.4273  -0.1222   2.6243   3.1620   3.4271
     4.8989

     occupation numbers 
     1.0000   1.0000   1.0000   1.0000   1.0000   1.0000   1.0000   1.0000
     1.0000   1.0000   1.0000   1.0000   1.0000   0.0000   0.0000   0.0000
     0.0000

          k = 0.1500 0.3753 0.0000 ( 10741 PWs)   bands (ev):

   -60.1859 -34.4141 -34.2865 -34.2400 -11.9851 -11.5134  -4.3985  -3.5524
    -3.0688  -2.5626  -1.4191  -0.6300  -0.0917   2.7243   3.2067   3.6598
     5.0242

     occupation numbers 
     1.0000   1.0000   1.0000   1.0000   1.0000   1.0000   1.0000   1.0000
     1.0000   1.0000   1.0000   1.0000   1.0000   0.0000   0.0000   0.0000
     0.0000

          k = 0.1500 0.4330 0.0000 ( 10731 PWs)   bands (ev):

   -60.1817 -34.4481 -34.2781 -34.2567 -11.7411 -11.4135  -4.5537  -3.9140
    -3.0881  -2.5473  -1.4950  -0.8549   0.0286   2.8694   3.2794   3.9049
     5.0639

     occupation numbers 
     1.0000   1.0000   1.0000   1.0000   1.0000   1.0000   1.0000   1.0000
     1.0000   1.0000   1.0000   1.0000   1.0000   0.0000   0.0000   0.0000
     0.0000

          k = 0.1500 0.4907 0.0000 ( 10701 PWs)   bands (ev):

   -60.1787 -34.4725 -34.2720 -34.2689 -11.5522 -11.3369  -4.6756  -4.1748
    -3.1815  -2.5021  -1.4991  -1.0514   0.1911   2.9009   3.4550   4.1171
     5.0360

     occupation numbers 
     1.0000   1.0000   1.0000   1.0000   1.0000   1.0000   1.0000   1.0000
     1.0000   1.0000   1.0000   1.0000   1.0000   0.0000   0.0000   0.0000
     0.0000

          k = 0.1500 0.5485 0.0000 ( 10696 PWs)   bands (ev):

   -60.1770 -34.4853 -34.2753 -34.2687 -11.4484 -11.2951  -4.7414  -4.3110
    -3.2604  -2.4631  -1.4845  -1.1694   0.3162   2.8585   3.6240   4.2499
     4.9897

     occupation numbers 
     1.0000   1.0000   1.0000   1.0000   1.0000   1.0000   1.0000   1.0000
     1.0000   1.0000   1.0000   1.0000   1.0000   0.0000   0.0000   0.0000
     0.0000

          k = 0.2000 0.3464 0.0000 ( 10739 PWs)   bands (ev):

   -60.1862 -34.4058 -34.2871 -34.2451 -12.0023 -11.5186  -4.3399  -3.5108
    -3.0298  -2.6217  -1.5505  -0.5518  -0.0928   2.6970   3.2178   3.5521
     5.0596

     occupation numbers 
     1.0000   1.0000   1.0000   1.0000   1.0000   1.0000   1.0000   1.0000
     1.0000   1.0000   1.0000   1.0000   1.0000   0.0000   0.0000   0.0000
     0.0000

          k = 0.2000 0.4041 0.0000 ( 10731 PWs)   bands (ev):

   -60.1820 -34.4327 -34.2787 -34.2691 -11.7618 -11.4172  -4.4293  -3.8952
    -2.9692  -2.6044  -1.8185  -0.7534   0.0095   2.8447   3.2865   3.7158
     5.1531

     occupation numbers 
     1.0000   1.0000   1.0000   1.0000   1.0000   1.0000   1.0000   1.0000
     1.0000   1.0000   1.0000   1.0000   1.0000   0.0000   0.0000   0.0000
     0.0000

          k = 0.2000 0.4619 0.0000 ( 10727 PWs)   bands (ev):

   -60.1787 -34.4527 -34.2893 -34.2720 -11.5592 -11.3314  -4.4899  -4.2055
    -3.0288  -2.5264  -1.9783  -0.9796   0.1724   2.8652   3.4813   3.8688
     5.1959

     occupation numbers 
     1.0000   1.0000   1.0000   1.0000   1.0000   1.0000   1.0000   1.0000
     1.0000   1.0000   1.0000   1.0000   1.0000   0.0000   0.0000   0.0000
     0.0000

          k = 0.2000 0.5196 0.0000 ( 10702 PWs)   bands (ev):

   -60.1765 -34.4650 -34.3028 -34.2677 -11.4227 -11.2736  -4.5145  -4.4047
    -3.1578  -2.4358  -2.0270  -1.1673   0.3452   2.7629   3.7317   3.9739
     5.2081

     occupation numbers 
     1.0000   1.0000   1.0000   1.0000   1.0000   1.0000   1.0000   1.0000
     1.0000   1.0000   1.0000   1.0000   1.0000   0.0000   0.0000   0.0000
     0.0000

          k = 0.2000 0.5774 0.0000 ( 10702 PWs)   bands (ev):

   -60.1758 -34.4692 -34.3076 -34.2662 -11.3744 -11.2532  -4.5185  -4.4732
    -3.2209  -2.3932  -2.0341  -1.2436   0.4242   2.7025   3.8440   4.0108
     5.2097

     occupation numbers 
     1.0000   1.0000   1.0000   1.0000   1.0000   1.0000   1.0000   1.0000
     1.0000   1.0000   1.0000   1.0000   1.0000   0.0000   0.0000   0.0000
     0.0000

          k = 0.2500 0.4330 0.0000 ( 10707 PWs)   bands (ev):

   -60.1787 -34.4437 -34.2986 -34.2720 -11.5618 -11.3293  -4.4116  -4.2169
    -2.9160  -2.5371  -2.2178  -0.9493   0.1626   2.8497   3.4920   3.7766
     5.2582

     occupation numbers 
     1.0000   1.0000   1.0000   1.0000   1.0000   1.0000   1.0000   1.0000
     1.0000   1.0000   1.0000   1.0000   1.0000   0.0000   0.0000   0.0000
     0.0000

          k = 0.2500 0.4907 0.0000 ( 10704 PWs)   bands (ev):

   -60.1762 -34.4479 -34.3238 -34.2671 -11.4101 -11.2615  -4.4580  -4.3417
    -3.0030  -2.4666  -2.4177  -1.1638   0.3571   2.6977   3.7927   3.8173
     5.3435

     occupation numbers 
     1.0000   1.0000   1.0000   1.0000   1.0000   1.0000   1.0000   1.0000
     1.0000   1.0000   1.0000   1.0000   1.0000   0.0000   0.0000   0.0000
     0.0000

          k = 0.2500 0.5485 0.0000 ( 10686 PWs)   bands (ev):

   -60.1750 -34.4482 -34.3389 -34.2646 -11.3280 -11.2244  -4.5861  -4.2614
    -3.1704  -2.5291  -2.3145  -1.3183   0.5116   2.5480   3.8347   4.0081
     5.3933

     occupation numbers 
     1.0000   1.0000   1.0000   1.0000   1.0000   1.0000   1.0000   1.0000
     1.0000   1.0000   1.0000   1.0000   1.0000   0.0000   0.0000   0.0000
     0.0000

          k = 0.3000 0.5196 0.0000 ( 10700 PWs)   bands (ev):

   -60.1747 -34.4360 -34.3547 -34.2640 -11.3122 -11.2141  -4.6264  -4.1259
    -3.1207  -2.7790  -2.2795  -1.3507   0.5476   2.4833   3.7711   4.0677
     5.4637

     occupation numbers 
     1.0000   1.0000   1.0000   1.0000   1.0000   1.0000   1.0000   1.0000
     1.0000   1.0000   1.0000   1.0000   1.0000   0.0000   0.0000   0.0000
     0.0000

          k = 0.3000 0.5774 0.0000 ( 10698 PWs)   bands (ev):

   -60.1741 -34.4274 -34.3699 -34.2629 -11.2780 -11.1974  -4.6851  -3.9781
    -3.2970  -2.8264  -2.2070  -1.4404   0.6371   2.3802   3.7527   4.1784
     5.5103

     occupation numbers 
     1.0000   1.0000   1.0000   1.0000   1.0000   1.0000   1.0000   1.0000
     1.0000   1.0000   1.0000   1.0000   1.0000   0.0000   0.0000   0.0000
     0.0000

          k = 0.0500 0.0289 0.0000 ( 10777 PWs)   bands (ev):

   -60.2149 -34.3445 -34.1522 -34.1451 -13.3592 -12.0806  -4.8717  -2.0062
    -1.8808  -1.3361  -0.8808  -0.6252   0.6602   3.3778   3.5071   3.5731
     3.6394

     occupation numbers 
     1.0000   1.0000   1.0000   1.0000   1.0000   1.0000   1.0000   1.0000
     1.0000   1.0000   1.0000   1.0000   1.0000   0.0000   0.0000   0.0000
     0.0000

          k = 0.1000 0.0577 0.0000 ( 10783 PWs)   bands (ev):

   -60.2123 -34.3393 -34.1790 -34.1512 -13.2501 -12.0355  -4.7492  -2.2394
    -1.7674  -1.7035  -1.0470  -0.4365   0.5977   3.2681   3.3136   3.5213
     3.6889

     occupation numbers 
     1.0000   1.0000   1.0000   1.0000   1.0000   1.0000   1.0000   1.0000
     1.0000   1.0000   1.0000   1.0000   1.0000   0.0000   0.0000   0.0000
     0.0000

          k = 0.1500 0.0866 0.0000 ( 10797 PWs)   bands (ev):

   -60.2082 -34.3311 -34.2206 -34.1607 -13.0753 -11.9634  -4.5694  -2.5596
    -2.0905  -1.5880  -1.2796  -0.3827   0.4594   3.0467   3.2310   3.3577
     3.9383

     occupation numbers 
     1.0000   1.0000   1.0000   1.0000   1.0000   1.0000   1.0000   1.0000
     1.0000   1.0000   1.0000   1.0000   1.0000   0.0000   0.0000   0.0000
     0.0000

          k = 0.2000 0.1155 0.0000 ( 10765 PWs)   bands (ev):

   -60.2030 -34.3208 -34.2726 -34.1727 -12.8451 -11.8688  -4.3833  -2.8867
    -2.4842  -1.5389  -1.3580  -0.4699   0.2319   2.8807   3.1841   3.3395
     4.2052

     occupation numbers 
     1.0000   1.0000   1.0000   1.0000   1.0000   1.0000   1.0000   1.0000
     1.0000   1.0000   1.0000   1.0000   1.0000   0.0000   0.0000   0.0000
     0.0000

          k = 0.2500 0.1443 0.0000 ( 10769 PWs)   bands (ev):

   -60.1973 -34.3298 -34.3093 -34.1859 -12.5748 -11.7584  -4.2926  -3.1195
    -2.8760  -1.7941  -1.0995  -0.6414  -0.0350   2.8495   3.0326   3.5747
     4.4511

     occupation numbers 
     1.0000   1.0000   1.0000   1.0000   1.0000   1.0000   1.0000   1.0000
     1.0000   1.0000   1.0000   1.0000   1.0000   0.0000   0.0000   0.0000
     0.0000

          k = 0.3000 0.1732 0.0000 ( 10747 PWs)   bands (ev):

   -60.1915 -34.3864 -34.2978 -34.1991 -12.2850 -11.6415  -4.3928  -3.2512
    -3.1962  -2.0238  -0.8404  -0.8280  -0.2345   2.9254   2.9275   3.8688
     4.6533

     occupation numbers 
     1.0000   1.0000   1.0000   1.0000   1.0000   1.0000   1.0000   1.0000
     1.0000   1.0000   1.0000   1.0000   1.0000   0.0000   0.0000   0.0000
     0.0000

          k = 0.3500 0.2021 0.0000 ( 10733 PWs)   bands (ev):

   -60.1863 -34.4371 -34.2874 -34.2110 -12.0024 -11.5294  -4.6167  -3.5865
    -3.2180  -2.2138  -0.9861  -0.6109  -0.2750   2.8798   3.0649   4.1512
     4.8037

     occupation numbers 
     1.0000   1.0000   1.0000   1.0000   1.0000   1.0000   1.0000   1.0000
     1.0000   1.0000   1.0000   1.0000   1.0000   0.0000   0.0000   0.0000
     0.0000

          k = 0.4000 0.2309 0.0000 ( 10731 PWs)   bands (ev):

   -60.1822 -34.4771 -34.2791 -34.2203 -11.7600 -11.4354  -4.8458  -3.8539
    -3.2749  -2.3551  -1.0990  -0.4361  -0.1648   2.8816   3.2279   4.3684
     4.9042

     occupation numbers 
     1.0000   1.0000   1.0000   1.0000   1.0000   1.0000   1.0000   1.0000
     1.0000   1.0000   1.0000   1.0000   1.0000   0.0000   0.0000   0.0000
     0.0000

          k = 0.4500 0.2598 0.0000 ( 10700 PWs)   bands (ev):

   -60.1796 -34.5026 -34.2738 -34.2264 -11.5939 -11.3724  -5.0100  -4.0269
    -3.3426  -2.4419  -1.1649  -0.3295  -0.0143   2.9056   3.3696   4.4961
     4.9608

     occupation numbers 
     1.0000   1.0000   1.0000   1.0000   1.0000   1.0000   1.0000   1.0000
     1.0000   1.0000   1.0000   1.0000   1.0000   0.0000   0.0000   0.0000
     0.0000

          k =-0.5000-0.2887 0.0000 ( 10718 PWs)   bands (ev):

   -60.1787 -34.5113 -34.2720 -34.2284 -11.5344 -11.3502  -5.0694  -4.0868
    -3.3717  -2.4711  -1.1864  -0.2940   0.0531   2.9186   3.4292   4.5368
     4.9789

     occupation numbers 
     1.0000   1.0000   1.0000   1.0000   1.0000   1.0000   1.0000   1.0000
     1.0000   1.0000   1.0000   1.0000   1.0000   0.0000   0.0000   0.0000
     0.0000

          k =-0.0500 0.0866 0.0000 ( 10769 PWs)   bands (ev):

   -60.2132 -34.3410 -34.1702 -34.1493 -13.2861 -12.0504  -4.7888  -2.1641
    -1.8063  -1.5982  -1.0086  -0.4640   0.6204   3.2900   3.3907   3.5567
     3.6352

     occupation numbers 
     1.0000   1.0000   1.0000   1.0000   1.0000   1.0000   1.0000   1.0000
     1.0000   1.0000   1.0000   1.0000   1.0000   0.0000   0.0000   0.0000
     0.0000

          k =-0.0500 0.1443 0.0000 ( 10769 PWs)   bands (ev):

   -60.2098 -34.3343 -34.2039 -34.1576 -13.1441 -11.9919  -4.6363  -2.4380
    -1.9335  -1.6628  -1.2471  -0.3395   0.5195   3.1354   3.1982   3.4111
     3.8664

     occupation numbers 
     1.0000   1.0000   1.0000   1.0000   1.0000   1.0000   1.0000   1.0000
     1.0000   1.0000   1.0000   1.0000   1.0000   0.0000   0.0000   0.0000
     0.0000

          k = 0.1500 0.0289 0.0000 ( 10769 PWs)   bands (ev):

   -60.2098 -34.3343 -34.2038 -34.1577 -13.1441 -11.9918  -4.6364  -2.4388
    -1.9317  -1.6621  -1.2497  -0.3390   0.5200   3.1360   3.1957   3.4102
     3.8691

     occupation numbers 
     1.0000   1.0000   1.0000   1.0000   1.0000   1.0000   1.0000   1.0000
     1.0000   1.0000   1.0000   1.0000   1.0000   0.0000   0.0000   0.0000
     0.0000

          k =-0.0500 0.2021 0.0000 ( 10788 PWs)   bands (ev):

   -60.2052 -34.3250 -34.2500 -34.1690 -12.9414 -11.9084  -4.4481  -2.7582
    -2.2957  -1.5295  -1.4657  -0.3412   0.3338   2.9201   3.2167   3.2475
     4.1388

     occupation numbers 
     1.0000   1.0000   1.0000   1.0000   1.0000   1.0000   1.0000   1.0000
     1.0000   1.0000   1.0000   1.0000   1.0000   0.0000   0.0000   0.0000
     0.0000

          k = 0.2000 0.0577 0.0000 ( 10788 PWs)   bands (ev):

   -60.2052 -34.3250 -34.2499 -34.1691 -12.9415 -11.9083  -4.4482  -2.7589
    -2.2941  -1.5317  -1.4651  -0.3412   0.3347   2.9201   3.2150   3.2470
     4.1409

     occupation numbers 
     1.0000   1.0000   1.0000   1.0000   1.0000   1.0000   1.0000   1.0000
     1.0000   1.0000   1.0000   1.0000   1.0000   0.0000   0.0000   0.0000
     0.0000

          k =-0.0500 0.2598 0.0000 ( 10754 PWs)   bands (ev):

   -60.1997 -34.3141 -34.3038 -34.1824 -12.6907 -11.8056  -4.2989  -3.0347
    -2.6766  -1.8027  -1.2388  -0.4638   0.0826   2.8084   3.1101   3.3788
     4.4040

     occupation numbers 
     1.0000   1.0000   1.0000   1.0000   1.0000   1.0000   1.0000   1.0000
     1.0000   1.0000   1.0000   1.0000   1.0000   0.0000   0.0000   0.0000
     0.0000

          k = 0.2500 0.0866 0.0000 ( 10754 PWs)   bands (ev):

   -60.1997 -34.3141 -34.3037 -34.1825 -12.6909 -11.8054  -4.2991  -3.0353
    -2.6755  -1.8043  -1.2384  -0.4641   0.0839   2.8078   3.1100   3.3776
     4.4054

     occupation numbers 
     1.0000   1.0000   1.0000   1.0000   1.0000   1.0000   1.0000   1.0000
     1.0000   1.0000   1.0000   1.0000   1.0000   0.0000   0.0000   0.0000
     0.0000

          k =-0.0500 0.3175 0.0000 ( 10744 PWs)   bands (ev):

   -60.1940 -34.3599 -34.3026 -34.1964 -12.4098 -11.6914  -4.3049  -3.1693
    -3.0641  -2.0347  -1.0185  -0.6504  -0.1425   2.7898   3.0401   3.6416
     4.6283

     occupation numbers 
     1.0000   1.0000   1.0000   1.0000   1.0000   1.0000   1.0000   1.0000
     1.0000   1.0000   1.0000   1.0000   1.0000   0.0000   0.0000   0.0000
     0.0000

          k = 0.3000 0.1155 0.0000 ( 10744 PWs)   bands (ev):

   -60.1940 -34.3598 -34.3026 -34.1965 -12.4101 -11.6910  -4.3051  -3.1700
    -3.0637  -2.0359  -1.0184  -0.6506  -0.1408   2.7890   3.0404   3.6407
     4.6290

     occupation numbers 
     1.0000   1.0000   1.0000   1.0000   1.0000   1.0000   1.0000   1.0000
     1.0000   1.0000   1.0000   1.0000   1.0000   0.0000   0.0000   0.0000
     0.0000

          k =-0.0500 0.3753 0.0000 ( 10751 PWs)   bands (ev):

   -60.1885 -34.4128 -34.2916 -34.2098 -12.1222 -11.5760  -4.4813  -3.4320
    -3.1893  -2.2152  -0.8440  -0.8425  -0.2220   2.8172   3.0653   3.9383
     4.7912

     occupation numbers 
     1.0000   1.0000   1.0000   1.0000   1.0000   1.0000   1.0000   1.0000
     1.0000   1.0000   1.0000   1.0000   1.0000   0.0000   0.0000   0.0000
     0.0000

          k = 0.3500 0.1443 0.0000 ( 10751 PWs)   bands (ev):

   -60.1885 -34.4126 -34.2917 -34.2098 -12.1225 -11.5755  -4.4814  -3.4322
    -3.1900  -2.2161  -0.8441  -0.8424  -0.2203   2.8166   3.0656   3.9377
     4.7912

     occupation numbers 
     1.0000   1.0000   1.0000   1.0000   1.0000   1.0000   1.0000   1.0000
     1.0000   1.0000   1.0000   1.0000   1.0000   0.0000   0.0000   0.0000
     0.0000

          k =-0.0500 0.4330 0.0000 ( 10738 PWs)   bands (ev):

   -60.1838 -34.4574 -34.2823 -34.2211 -11.8576 -11.4719  -4.7120  -3.7471
    -3.2238  -2.3456  -1.0034  -0.7083  -0.1361   2.8616   3.1719   4.2131
     4.8818

     occupation numbers 
     1.0000   1.0000   1.0000   1.0000   1.0000   1.0000   1.0000   1.0000
     1.0000   1.0000   1.0000   1.0000   1.0000   0.0000   0.0000   0.0000
     0.0000

          k = 0.4000 0.1732 0.0000 ( 10738 PWs)   bands (ev):

   -60.1838 -34.4573 -34.2823 -34.2211 -11.8580 -11.4713  -4.7119  -3.7476
    -3.2245  -2.3465  -1.0029  -0.7084  -0.1347   2.8615   3.1720   4.2126
     4.8812

     occupation numbers 
     1.0000   1.0000   1.0000   1.0000   1.0000   1.0000   1.0000   1.0000
     1.0000   1.0000   1.0000   1.0000   1.0000   0.0000   0.0000   0.0000
     0.0000

          k =-0.0500 0.4907 0.0000 ( 10700 PWs)   bands (ev):

   -60.1804 -34.4896 -34.2755 -34.2292 -11.6510 -11.3923  -4.9077  -3.9777
    -3.2949  -2.4300  -1.1156  -0.5915   0.0166   2.9040   3.3152   4.4312
     4.9017

     occupation numbers 
     1.0000   1.0000   1.0000   1.0000   1.0000   1.0000   1.0000   1.0000
     1.0000   1.0000   1.0000   1.0000   1.0000   0.0000   0.0000   0.0000
     0.0000

          k = 0.4500 0.2021 0.0000 ( 10700 PWs)   bands (ev):

   -60.1804 -34.4895 -34.2755 -34.2293 -11.6515 -11.3916  -4.9074  -3.9785
    -3.2956  -2.4309  -1.1148  -0.5917   0.0177   2.9043   3.3153   4.4307
     4.9009

     occupation numbers 
     1.0000   1.0000   1.0000   1.0000   1.0000   1.0000   1.0000   1.0000
     1.0000   1.0000   1.0000   1.0000   1.0000   0.0000   0.0000   0.0000
     0.0000

          k =-0.0500 0.5485 0.0000 ( 10703 PWs)   bands (ev):

   -60.1787 -34.5065 -34.2719 -34.2336 -11.5366 -11.3489  -5.0185  -4.0997
    -3.3502  -2.4713  -1.1726  -0.5234   0.1317   2.9266   3.4262   4.5665
     4.8784

     occupation numbers 
     1.0000   1.0000   1.0000   1.0000   1.0000   1.0000   1.0000   1.0000
     1.0000   1.0000   1.0000   1.0000   1.0000   0.0000   0.0000   0.0000
     0.0000

          k = 0.5000 0.2309 0.0000 ( 10703 PWs)   bands (ev):

   -60.1787 -34.5064 -34.2720 -34.2336 -11.5371 -11.3482  -5.0181  -4.1006
    -3.3510  -2.4724  -1.1715  -0.5235   0.1326   2.9271   3.4264   4.5653
     4.8782

     occupation numbers 
     1.0000   1.0000   1.0000   1.0000   1.0000   1.0000   1.0000   1.0000
     1.0000   1.0000   1.0000   1.0000   1.0000   0.0000   0.0000   0.0000
     0.0000

          k =-0.1000 0.1732 0.0000 ( 10777 PWs)   bands (ev):

   -60.2059 -34.3265 -34.2414 -34.1686 -12.9741 -11.9218  -4.4718  -2.7077
    -2.1974  -1.5879  -1.5081  -0.2567   0.3698   2.9375   3.1427   3.2641
     4.1362

     occupation numbers 
     1.0000   1.0000   1.0000   1.0000   1.0000   1.0000   1.0000   1.0000
     1.0000   1.0000   1.0000   1.0000   1.0000   0.0000   0.0000   0.0000
     0.0000

          k =-0.1000 0.2309 0.0000 ( 10766 PWs)   bands (ev):

   -60.2010 -34.3166 -34.2878 -34.1829 -12.7506 -11.8297  -4.3071  -2.9717
    -2.4972  -1.9423  -1.3338  -0.2771   0.1543   2.7752   3.1517   3.1963
     4.4206

     occupation numbers 
     1.0000   1.0000   1.0000   1.0000   1.0000   1.0000   1.0000   1.0000
     1.0000   1.0000   1.0000   1.0000   1.0000   0.0000   0.0000   0.0000
     0.0000

          k = 0.2500 0.0289 0.0000 ( 10766 PWs)   bands (ev):

   -60.2010 -34.3167 -34.2877 -34.1830 -12.7507 -11.8295  -4.3072  -2.9725
    -2.4958  -1.9441  -1.3333  -0.2774   0.1555   2.7744   3.1521   3.1953
     4.4217

     occupation numbers 
     1.0000   1.0000   1.0000   1.0000   1.0000   1.0000   1.0000   1.0000
     1.0000   1.0000   1.0000   1.0000   1.0000   0.0000   0.0000   0.0000
     0.0000

          k =-0.1000 0.2887 0.0000 ( 10756 PWs)   bands (ev):

   -60.1955 -34.3387 -34.3057 -34.1989 -12.4884 -11.7221  -4.2415  -3.1313
    -2.8649  -2.2040  -1.1892  -0.4080  -0.0592   2.6882   3.1092   3.3760
     4.6689

     occupation numbers 
     1.0000   1.0000   1.0000   1.0000   1.0000   1.0000   1.0000   1.0000
     1.0000   1.0000   1.0000   1.0000   1.0000   0.0000   0.0000   0.0000
     0.0000

          k = 0.3000 0.0577 0.0000 ( 10756 PWs)   bands (ev):

   -60.1955 -34.3386 -34.3057 -34.1990 -12.4886 -11.7217  -4.2417  -3.1321
    -2.8644  -2.2050  -1.1889  -0.4084  -0.0577   2.6873   3.1098   3.3756
     4.6692

     occupation numbers 
     1.0000   1.0000   1.0000   1.0000   1.0000   1.0000   1.0000   1.0000
     1.0000   1.0000   1.0000   1.0000   1.0000   0.0000   0.0000   0.0000
     0.0000

          k =-0.1000 0.3464 0.0000 ( 10758 PWs)   bands (ev):

   -60.1900 -34.3891 -34.2948 -34.2149 -12.2079 -11.6078  -4.3459  -3.2691
    -3.1499  -2.3580  -1.1226  -0.6050  -0.1558   2.6988   3.1260   3.6382
     4.8496

     occupation numbers 
     1.0000   1.0000   1.0000   1.0000   1.0000   1.0000   1.0000   1.0000
     1.0000   1.0000   1.0000   1.0000   1.0000   0.0000   0.0000   0.0000
     0.0000

          k = 0.3500 0.0866 0.0000 ( 10758 PWs)   bands (ev):

   -60.1900 -34.3890 -34.2948 -34.2150 -12.2082 -11.6073  -4.3460  -3.2694
    -3.1507  -2.3584  -1.1224  -0.6053  -0.1543   2.6981   3.1265   3.6382
     4.8491

     occupation numbers 
     1.0000   1.0000   1.0000   1.0000   1.0000   1.0000   1.0000   1.0000
     1.0000   1.0000   1.0000   1.0000   1.0000   0.0000   0.0000   0.0000
     0.0000

          k =-0.1000 0.4041 0.0000 ( 10742 PWs)   bands (ev):

   -60.1851 -34.4343 -34.2849 -34.2293 -11.9353 -11.4980  -4.5437  -3.6439
    -3.1490  -2.4386  -1.0950  -0.8160  -0.0993   2.7945   3.1794   3.9260
     4.9433

     occupation numbers 
     1.0000   1.0000   1.0000   1.0000   1.0000   1.0000   1.0000   1.0000
     1.0000   1.0000   1.0000   1.0000   1.0000   0.0000   0.0000   0.0000
     0.0000

          k = 0.4000 0.1155 0.0000 ( 10742 PWs)   bands (ev):

   -60.1851 -34.4341 -34.2849 -34.2294 -11.9356 -11.4974  -4.5437  -3.6446
    -3.1498  -2.4389  -1.0949  -0.8159  -0.0981   2.7942   3.1798   3.9264
     4.9419

     occupation numbers 
     1.0000   1.0000   1.0000   1.0000   1.0000   1.0000   1.0000   1.0000
     1.0000   1.0000   1.0000   1.0000   1.0000   0.0000   0.0000   0.0000
     0.0000

          k =-0.1000 0.4619 0.0000 ( 10721 PWs)   bands (ev):

   -60.1812 -34.4698 -34.2770 -34.2408 -11.7025 -11.4057  -4.7381  -3.9425
    -3.2091  -2.4726  -1.0382  -0.9997   0.0424   2.8977   3.2814   4.1982
     4.9427

     occupation numbers 
     1.0000   1.0000   1.0000   1.0000   1.0000   1.0000   1.0000   1.0000
     1.0000   1.0000   1.0000   1.0000   1.0000   0.0000   0.0000   0.0000
     0.0000

          k = 0.4500 0.1443 0.0000 ( 10721 PWs)   bands (ev):

   -60.1812 -34.4697 -34.2770 -34.2409 -11.7029 -11.4050  -4.7380  -3.9433
    -3.2097  -2.4730  -1.0383  -0.9992   0.0433   2.8978   3.2818   4.1990
     4.9405

     occupation numbers 
     1.0000   1.0000   1.0000   1.0000   1.0000   1.0000   1.0000   1.0000
     1.0000   1.0000   1.0000   1.0000   1.0000   0.0000   0.0000   0.0000
     0.0000

[...]
     0.0000

          k = 0.5000 0.2309 0.0000 ( 10703 PWs)   bands (ev):

   -60.1787 -34.5064 -34.2720 -34.2336 -11.5371 -11.3482  -5.0181  -4.1006
    -3.3510  -2.4724  -1.1715  -0.5235   0.1326   2.9271   3.4264   4.5653
     4.8782

     occupation numbers 
     1.0000   1.0000   1.0000   1.0000   1.0000   1.0000   1.0000   1.0000
     1.0000   1.0000   1.0000   1.0000   1.0000   0.0000   0.0000   0.0000
     0.0000

          k =-0.1000 0.1732 0.0000 ( 10777 PWs)   bands (ev):

   -60.2059 -34.3265 -34.2414 -34.1686 -12.9741 -11.9218  -4.4718  -2.7077
    -2.1974  -1.5879  -1.5081  -0.2567   0.3698   2.9375   3.1427   3.2641
     4.1362

     occupation numbers 
     1.0000   1.0000   1.0000   1.0000   1.0000   1.0000   1.0000   1.0000
     1.0000   1.0000   1.0000   1.0000   1.0000   0.0000   0.0000   0.0000
     0.0000

          k =-0.1000 0.2309 0.0000 ( 10766 PWs)   bands (ev):

   -60.2010 -34.3166 -34.2878 -34.1829 -12.7506 -11.8297  -4.3071  -2.9717
    -2.4972  -1.9423  -1.3338  -0.2771   0.1543   2.7752   3.1517   3.1963
     4.4206

     occupation numbers 
     1.0000   1.0000   1.0000   1.0000   1.0000   1.0000   1.0000   1.0000
     1.0000   1.0000   1.0000   1.0000   1.0000   0.0000   0.0000   0.0000
     0.0000

          k = 0.2500 0.0289 0.0000 ( 10766 PWs)   bands (ev):

   -60.2010 -34.3166 -34.2877 -34.1830 -12.7507 -11.8295  -4.3072  -2.9725
    -2.4958  -1.9441  -1.3333  -0.2774   0.1555   2.7744   3.1521   3.1953
     4.4217

     occupation numbers 
     1.0000   1.0000   1.0000   1.0000   1.0000   1.0000   1.0000   1.0000
     1.0000   1.0000   1.0000   1.0000   1.0000   0.0000   0.0000   0.0000
     0.0000

          k =-0.1000 0.2887 0.0000 ( 10756 PWs)   bands (ev):

   -60.1955 -34.3387 -34.3057 -34.1989 -12.4884 -11.7221  -4.2415  -3.1313
    -2.8649  -2.2040  -1.1892  -0.4080  -0.0592   2.6882   3.1092   3.3760
     4.6689

     occupation numbers 
     1.0000   1.0000   1.0000   1.0000   1.0000   1.0000   1.0000   1.0000
     1.0000   1.0000   1.0000   1.0000   1.0000   0.0000   0.0000   0.0000
     0.0000

          k = 0.3000 0.0577 0.0000 ( 10756 PWs)   bands (ev):

   -60.1955 -34.3386 -34.3057 -34.1990 -12.4886 -11.7217  -4.2417  -3.1321
    -2.8644  -2.2050  -1.1889  -0.4084  -0.0577   2.6873   3.1098   3.3756
     4.6692

     occupation numbers 
     1.0000   1.0000   1.0000   1.0000   1.0000   1.0000   1.0000   1.0000
     1.0000   1.0000   1.0000   1.0000   1.0000   0.0000   0.0000   0.0000
     0.0000

          k =-0.1000 0.3464 0.0000 ( 10758 PWs)   bands (ev):

   -60.1900 -34.3891 -34.2948 -34.2149 -12.2079 -11.6078  -4.3459  -3.2691
    -3.1499  -2.3580  -1.1226  -0.6050  -0.1558   2.6988   3.1260   3.6382
     4.8496

     occupation numbers 
     1.0000   1.0000   1.0000   1.0000   1.0000   1.0000   1.0000   1.0000
     1.0000   1.0000   1.0000   1.0000   1.0000   0.0000   0.0000   0.0000
     0.0000

          k = 0.3500 0.0866 0.0000 ( 10758 PWs)   bands (ev):

   -60.1900 -34.3890 -34.2948 -34.2150 -12.2082 -11.6073  -4.3460  -3.2694
    -3.1507  -2.3584  -1.1224  -0.6053  -0.1543   2.6981   3.1265   3.6382
     4.8491

     occupation numbers 
     1.0000   1.0000   1.0000   1.0000   1.0000   1.0000   1.0000   1.0000
     1.0000   1.0000   1.0000   1.0000   1.0000   0.0000   0.0000   0.0000
     0.0000

          k =-0.1000 0.4041 0.0000 ( 10742 PWs)   bands (ev):

   -60.1851 -34.4343 -34.2849 -34.2293 -11.9353 -11.4980  -4.5437  -3.6439
    -3.1490  -2.4386  -1.0950  -0.8160  -0.0993   2.7945   3.1794   3.9260
     4.9433

     occupation numbers 
     1.0000   1.0000   1.0000   1.0000   1.0000   1.0000   1.0000   1.0000
     1.0000   1.0000   1.0000   1.0000   1.0000   0.0000   0.0000   0.0000
     0.0000

          k = 0.4000 0.1155 0.0000 ( 10742 PWs)   bands (ev):

   -60.1851 -34.4341 -34.2849 -34.2294 -11.9356 -11.4974  -4.5437  -3.6446
    -3.1498  -2.4389  -1.0949  -0.8159  -0.0981   2.7942   3.1798   3.9264
     4.9419

     occupation numbers 
     1.0000   1.0000   1.0000   1.0000   1.0000   1.0000   1.0000   1.0000
     1.0000   1.0000   1.0000   1.0000   1.0000   0.0000   0.0000   0.0000
     0.0000

          k =-0.1000 0.4619 0.0000 ( 10721 PWs)   bands (ev):

   -60.1812 -34.4698 -34.2770 -34.2408 -11.7025 -11.4057  -4.7381  -3.9425
    -3.2091  -2.4726  -1.0382  -0.9997   0.0424   2.8977   3.2814   4.1983
     4.9427

     occupation numbers 
     1.0000   1.0000   1.0000   1.0000   1.0000   1.0000   1.0000   1.0000
     1.0000   1.0000   1.0000   1.0000   1.0000   0.0000   0.0000   0.0000
     0.0000

          k = 0.4500 0.1443 0.0000 ( 10721 PWs)   bands (ev):

   -60.1812 -34.4697 -34.2770 -34.2409 -11.7029 -11.4050  -4.7380  -3.9433
    -3.2097  -2.4730  -1.0383  -0.9992   0.0433   2.8978   3.2818   4.1990
     4.9405

     occupation numbers 
     1.0000   1.0000   1.0000   1.0000   1.0000   1.0000   1.0000   1.0000
     1.0000   1.0000   1.0000   1.0000   1.0000   0.0000   0.0000   0.0000
     0.0000

          k =-0.1000 0.5196 0.0000 ( 10713 PWs)   bands (ev):

   -60.1786 -34.4925 -34.2719 -34.2481 -11.5436 -11.3436  -4.8752  -4.1342
    -3.2880  -2.4808  -1.1252  -0.9773   0.1894   2.9284   3.4309   4.4299
     4.8632

     occupation numbers 
     1.0000   1.0000   1.0000   1.0000   1.0000   1.0000   1.0000   1.0000
     1.0000   1.0000   1.0000   1.0000   1.0000   0.0000   0.0000   0.0000
     0.0000

          k = 0.5000 0.1732 0.0000 ( 10713 PWs)   bands (ev):

   -60.1787 -34.4924 -34.2720 -34.2482 -11.5441 -11.3430  -4.8749  -4.1351
    -3.2887  -2.4815  -1.1243  -0.9774   0.1901   2.9287   3.4313   4.4310
     4.8604

     occupation numbers 
     1.0000   1.0000   1.0000   1.0000   1.0000   1.0000   1.0000   1.0000
     1.0000   1.0000   1.0000   1.0000   1.0000   0.0000   0.0000   0.0000
     0.0000

          k = 0.5500 0.2021 0.0000 ( 10698 PWs)   bands (ev):

   -60.1778 -34.5002 -34.2702 -34.2507 -11.4874 -11.3210  -4.9241  -4.2012
    -3.3231  -2.4819  -1.1689  -0.9532   0.2546   2.9262   3.5077   4.5586
     4.7802

     occupation numbers 
     1.0000   1.0000   1.0000   1.0000   1.0000   1.0000   1.0000   1.0000
     1.0000   1.0000   1.0000   1.0000   1.0000   0.0000   0.0000   0.0000
     0.0000

          k =-0.1500 0.2598 0.0000 ( 10761 PWs)   bands (ev):

   -60.1960 -34.3303 -34.3068 -34.2008 -12.5152 -11.7324  -4.2185  -3.1131
    -2.7420  -2.3292  -1.2564  -0.2979  -0.0285   2.6505   3.1308   3.2598
     4.6909

     occupation numbers 
     1.0000   1.0000   1.0000   1.0000   1.0000   1.0000   1.0000   1.0000
     1.0000   1.0000   1.0000   1.0000   1.0000   0.0000   0.0000   0.0000
     0.0000

          k =-0.1500 0.3175 0.0000 ( 10754 PWs)   bands (ev):

   -60.1909 -34.3737 -34.2964 -34.2206 -12.2525 -11.6239  -4.2591  -3.1290
    -3.1193  -2.5147  -1.2984  -0.4268  -0.1234   2.6249   3.1612   3.4266
     4.8999

     occupation numbers 
     1.0000   1.0000   1.0000   1.0000   1.0000   1.0000   1.0000   1.0000
     1.0000   1.0000   1.0000   1.0000   1.0000   0.0000   0.0000   0.0000
     0.0000

          k = 0.3500 0.0289 0.0000 ( 10754 PWs)   bands (ev):

   -60.1909 -34.3736 -34.2964 -34.2207 -12.2527 -11.6235  -4.2592  -3.1296
    -3.1201  -2.5145  -1.2982  -0.4272  -0.1221   2.6243   3.1618   3.4269
     4.8991

     occupation numbers 
     1.0000   1.0000   1.0000   1.0000   1.0000   1.0000   1.0000   1.0000
     1.0000   1.0000   1.0000   1.0000   1.0000   0.0000   0.0000   0.0000
     0.0000

          k =-0.1500 0.3753 0.0000 ( 10741 PWs)   bands (ev):

   -60.1859 -34.4142 -34.2865 -34.2399 -11.9850 -11.5137  -4.3984  -3.5513
    -3.0686  -2.5636  -1.4187  -0.6294  -0.0926   2.7247   3.2059   3.6585
     5.0262

     occupation numbers 
     1.0000   1.0000   1.0000   1.0000   1.0000   1.0000   1.0000   1.0000
     1.0000   1.0000   1.0000   1.0000   1.0000   0.0000   0.0000   0.0000
     0.0000

          k = 0.4000 0.0577 0.0000 ( 10741 PWs)   bands (ev):

   -60.1859 -34.4141 -34.2865 -34.2400 -11.9853 -11.5132  -4.3985  -3.5522
    -3.0693  -2.5633  -1.4185  -0.6296  -0.0916   2.7244   3.2065   3.6592
     5.0245

     occupation numbers 
     1.0000   1.0000   1.0000   1.0000   1.0000   1.0000   1.0000   1.0000
     1.0000   1.0000   1.0000   1.0000   1.0000   0.0000   0.0000   0.0000
     0.0000

          k =-0.1500 0.4330 0.0000 ( 10731 PWs)   bands (ev):

   -60.1817 -34.4481 -34.2781 -34.2566 -11.7410 -11.4138  -4.5536  -3.9132
    -3.0882  -2.5483  -1.4944  -0.8543   0.0281   2.8696   3.2786   3.9031
     5.0664

     occupation numbers 
     1.0000   1.0000   1.0000   1.0000   1.0000   1.0000   1.0000   1.0000
     1.0000   1.0000   1.0000   1.0000   1.0000   0.0000   0.0000   0.0000
     0.0000

          k = 0.4500 0.0866 0.0000 ( 10731 PWs)   bands (ev):

   -60.1817 -34.4480 -34.2781 -34.2567 -11.7413 -11.4132  -4.5535  -3.9142
    -3.0888  -2.5482  -1.4944  -0.8542   0.0288   2.8697   3.2792   3.9041
     5.0640

     occupation numbers 
     1.0000   1.0000   1.0000   1.0000   1.0000   1.0000   1.0000   1.0000
     1.0000   1.0000   1.0000   1.0000   1.0000   0.0000   0.0000   0.0000
     0.0000

          k =-0.1500 0.4907 0.0000 ( 10701 PWs)   bands (ev):

   -60.1787 -34.4726 -34.2720 -34.2689 -11.5522 -11.3370  -4.6755  -4.1742
    -3.1817  -2.5028  -1.4986  -1.0509   0.1908   2.9010   3.4544   4.1153
     5.0384

     occupation numbers 
     1.0000   1.0000   1.0000   1.0000   1.0000   1.0000   1.0000   1.0000
     1.0000   1.0000   1.0000   1.0000   1.0000   0.0000   0.0000   0.0000
     0.0000

          k = 0.5000 0.1155 0.0000 ( 10701 PWs)   bands (ev):

   -60.1787 -34.4724 -34.2720 -34.2689 -11.5525 -11.3365  -4.6753  -4.1752
    -3.1823  -2.5031  -1.4987  -1.0504   0.1914   2.9013   3.4550   4.1164
     5.0356

     occupation numbers 
     1.0000   1.0000   1.0000   1.0000   1.0000   1.0000   1.0000   1.0000
     1.0000   1.0000   1.0000   1.0000   1.0000   0.0000   0.0000   0.0000
     0.0000

          k =-0.1500 0.5485 0.0000 ( 10696 PWs)   bands (ev):

   -60.1770 -34.4853 -34.2753 -34.2687 -11.4484 -11.2951  -4.7413  -4.3108
    -3.2605  -2.4634  -1.4843  -1.1692   0.3161   2.8585   3.6237   4.2490
     4.9908

     occupation numbers 
     1.0000   1.0000   1.0000   1.0000   1.0000   1.0000   1.0000   1.0000
     1.0000   1.0000   1.0000   1.0000   1.0000   0.0000   0.0000   0.0000
     0.0000

          k = 0.5500 0.1443 0.0000 ( 10696 PWs)   bands (ev):

   -60.1770 -34.4852 -34.2754 -34.2688 -11.4488 -11.2945  -4.7410  -4.3117
    -3.2611  -2.4640  -1.4843  -1.1682   0.3165   2.8589   3.6243   4.2498
     4.9883

     occupation numbers 
     1.0000   1.0000   1.0000   1.0000   1.0000   1.0000   1.0000   1.0000
     1.0000   1.0000   1.0000   1.0000   1.0000   0.0000   0.0000   0.0000
     0.0000

          k =-0.2000 0.3464 0.0000 ( 10739 PWs)   bands (ev):

   -60.1862 -34.4059 -34.2871 -34.2450 -12.0021 -11.5189  -4.3398  -3.5097
    -3.0292  -2.6226  -1.5506  -0.5513  -0.0937   2.6973   3.2171   3.5512
     5.0613

     occupation numbers 
     1.0000   1.0000   1.0000   1.0000   1.0000   1.0000   1.0000   1.0000
     1.0000   1.0000   1.0000   1.0000   1.0000   0.0000   0.0000   0.0000
     0.0000

          k =-0.2000 0.4041 0.0000 ( 10731 PWs)   bands (ev):

   -60.1820 -34.4328 -34.2787 -34.2690 -11.7616 -11.4175  -4.4291  -3.8941
    -2.9691  -2.6053  -1.8182  -0.7530   0.0091   2.8448   3.2856   3.7145
     5.1555

     occupation numbers 
     1.0000   1.0000   1.0000   1.0000   1.0000   1.0000   1.0000   1.0000
     1.0000   1.0000   1.0000   1.0000   1.0000   0.0000   0.0000   0.0000
     0.0000

          k = 0.4500 0.0289 0.0000 ( 10731 PWs)   bands (ev):

   -60.1820 -34.4326 -34.2787 -34.2691 -11.7618 -11.4171  -4.4292  -3.8952
    -2.9695  -2.6047  -1.8182  -0.7532   0.0096   2.8448   3.2864   3.7156
     5.1532

     occupation numbers 
     1.0000   1.0000   1.0000   1.0000   1.0000   1.0000   1.0000   1.0000
     1.0000   1.0000   1.0000   1.0000   1.0000   0.0000   0.0000   0.0000
     0.0000

          k =-0.2000 0.4619 0.0000 ( 10727 PWs)   bands (ev):

   -60.1787 -34.4528 -34.2892 -34.2720 -11.5590 -11.3317  -4.4897  -4.2047
    -3.0291  -2.5272  -1.9777  -0.9792   0.1722   2.8651   3.4805   3.8674
     5.1981

     occupation numbers 
     1.0000   1.0000   1.0000   1.0000   1.0000   1.0000   1.0000   1.0000
     1.0000   1.0000   1.0000   1.0000   1.0000   0.0000   0.0000   0.0000
     0.0000

          k = 0.5000 0.0577 0.0000 ( 10727 PWs)   bands (ev):

   -60.1787 -34.4526 -34.2894 -34.2720 -11.5593 -11.3312  -4.4897  -4.2057
    -3.0294  -2.5270  -1.9779  -0.9790   0.1725   2.8653   3.4813   3.8685
     5.1956

     occupation numbers 
     1.0000   1.0000   1.0000   1.0000   1.0000   1.0000   1.0000   1.0000
     1.0000   1.0000   1.0000   1.0000   1.0000   0.0000   0.0000   0.0000
     0.0000

          k =-0.2000 0.5196 0.0000 ( 10702 PWs)   bands (ev):

   -60.1765 -34.4650 -34.3028 -34.2677 -11.4227 -11.2737  -4.5144  -4.4043
    -3.1581  -2.4362  -2.0266  -1.1670   0.3451   2.7628   3.7313   3.9730
     5.2095

     occupation numbers 
     1.0000   1.0000   1.0000   1.0000   1.0000   1.0000   1.0000   1.0000
     1.0000   1.0000   1.0000   1.0000   1.0000   0.0000   0.0000   0.0000
     0.0000

          k = 0.5500 0.0866 0.0000 ( 10702 PWs)   bands (ev):

   -60.1765 -34.4649 -34.3029 -34.2677 -11.4230 -11.2733  -4.5142  -4.4052
    -3.1585  -2.4365  -2.0268  -1.1664   0.3454   2.7632   3.7320   3.9738
     5.2072

     occupation numbers 
     1.0000   1.0000   1.0000   1.0000   1.0000   1.0000   1.0000   1.0000
     1.0000   1.0000   1.0000   1.0000   1.0000   0.0000   0.0000   0.0000
     0.0000

          k = 0.6000 0.1155 0.0000 ( 10702 PWs)   bands (ev):

   -60.1758 -34.4690 -34.3076 -34.2662 -11.3747 -11.2527  -4.5182  -4.4738
    -3.2214  -2.3939  -2.0341  -1.2427   0.4244   2.7028   3.8445   4.0111
     5.2080

     occupation numbers 
     1.0000   1.0000   1.0000   1.0000   1.0000   1.0000   1.0000   1.0000
     1.0000   1.0000   1.0000   1.0000   1.0000   0.0000   0.0000   0.0000
     0.0000

          k =-0.2500 0.4330 0.0000 ( 10707 PWs)   bands (ev):

   -60.1787 -34.4438 -34.2985 -34.2720 -11.5616 -11.3297  -4.4115  -4.2159
    -2.9161  -2.5377  -2.2174  -0.9491   0.1624   2.8495   3.4913   3.7754
     5.2606

     occupation numbers 
     1.0000   1.0000   1.0000   1.0000   1.0000   1.0000   1.0000   1.0000
     1.0000   1.0000   1.0000   1.0000   1.0000   0.0000   0.0000   0.0000
     0.0000

          k =-0.2500 0.4907 0.0000 ( 10704 PWs)   bands (ev):

   -60.1762 -34.4480 -34.3237 -34.2671 -11.4100 -11.2618  -4.4574  -4.3416
    -3.0036  -2.4659  -2.4181  -1.1637   0.3571   2.6974   3.7921   3.8164
     5.3452

     occupation numbers 
     1.0000   1.0000   1.0000   1.0000   1.0000   1.0000   1.0000   1.0000
     1.0000   1.0000   1.0000   1.0000   1.0000   0.0000   0.0000   0.0000
     0.0000

          k = 0.5500 0.0289 0.0000 ( 10704 PWs)   bands (ev):

   -60.1762 -34.4479 -34.3238 -34.2671 -11.4102 -11.2614  -4.4582  -4.3416
    -3.0034  -2.4664  -2.4179  -1.1635   0.3572   2.6977   3.7928   3.8172
     5.3431

     occupation numbers 
     1.0000   1.0000   1.0000   1.0000   1.0000   1.0000   1.0000   1.0000
     1.0000   1.0000   1.0000   1.0000   1.0000   0.0000   0.0000   0.0000
     0.0000

          k =-0.2500 0.5485 0.0000 ( 10686 PWs)   bands (ev):

   -60.1750 -34.4483 -34.3388 -34.2646 -11.3279 -11.2245  -4.5859  -4.2613
    -3.1707  -2.5288  -2.3147  -1.3182   0.5116   2.5479   3.8344   4.0078
     5.3939

     occupation numbers 
     1.0000   1.0000   1.0000   1.0000   1.0000   1.0000   1.0000   1.0000
     1.0000   1.0000   1.0000   1.0000   1.0000   0.0000   0.0000   0.0000
     0.0000

          k = 0.6000 0.0577 0.0000 ( 10686 PWs)   bands (ev):

   -60.1750 -34.4481 -34.3389 -34.2646 -11.3281 -11.2242  -4.5864  -4.2611
    -3.1707  -2.5291  -2.3150  -1.3176   0.5117   2.5482   3.8348   4.0083
     5.3924

     occupation numbers 
     1.0000   1.0000   1.0000   1.0000   1.0000   1.0000   1.0000   1.0000
     1.0000   1.0000   1.0000   1.0000   1.0000   0.0000   0.0000   0.0000
     0.0000

          k =-0.3000 0.5196 0.0000 ( 10700 PWs)   bands (ev):

   -60.1747 -34.4361 -34.3546 -34.2640 -11.3121 -11.2143  -4.6260  -4.1259
    -3.1214  -2.7781  -2.2795  -1.3509   0.5476   2.4830   3.7707   4.0673
     5.4648

     occupation numbers 
     1.0000   1.0000   1.0000   1.0000   1.0000   1.0000   1.0000   1.0000
     1.0000   1.0000   1.0000   1.0000   1.0000   0.0000   0.0000   0.0000
     0.0000

          k = 0.6500 0.0289 0.0000 ( 10698 PWs)   bands (ev):

   -60.1741 -34.4273 -34.3700 -34.2629 -11.2781 -11.1973  -4.6853  -3.9780
    -3.2969  -2.8266  -2.2071  -1.4401   0.6371   2.3804   3.7528   4.1786
     5.5098

     occupation numbers 
     1.0000   1.0000   1.0000   1.0000   1.0000   1.0000   1.0000   1.0000
     1.0000   1.0000   1.0000   1.0000   1.0000   0.0000   0.0000   0.0000
     0.0000

     the Fermi energy is     1.6406 ev
     (compare with:     1.5452 eV, computed in scf)

     Writing output data file ./outdir/MoS2.save/
 
     init_run     :      0.50s CPU      0.59s WALL (       1 calls)
     electrons    :     93.81s CPU    104.25s WALL (       1 calls)

     Called by init_run:
     wfcinit      :      0.00s CPU      0.00s WALL (       1 calls)
     wfcinit:atom :      0.06s CPU      0.07s WALL (     222 calls)
     wfcinit:wfcr :      3.14s CPU      3.49s WALL (     222 calls)
     potinit      :      0.07s CPU      0.10s WALL (       1 calls)
     hinit0       :      0.24s CPU      0.25s WALL (       1 calls)

     Called by electrons:
     c_bands      :     93.80s CPU    104.24s WALL (       1 calls)
     v_of_rho     :      0.05s CPU      0.08s WALL (       1 calls)
     v_h          :      0.00s CPU      0.00s WALL (       1 calls)
     v_xc         :      0.05s CPU      0.07s WALL (       1 calls)
     newd         :      0.13s CPU      0.17s WALL (       1 calls)

     Called by c_bands:
     init_us_2    :      0.08s CPU      0.09s WALL (     222 calls)
     cegterg      :     89.49s CPU     99.54s WALL (     444 calls)

     Called by sum_band:

     Called by *egterg:
     cdiaghg      :      8.67s CPU     13.50s WALL (    7638 calls)
     cegterg:over :      4.88s CPU      5.38s WALL (    7416 calls)
     cegterg:upda :      3.33s CPU      3.48s WALL (    7416 calls)
     cegterg:last :      5.85s CPU      6.25s WALL (    6441 calls)
     cdiaghg:chol :      0.70s CPU      0.81s WALL (    7638 calls)
     cdiaghg:inve :      0.49s CPU      0.58s WALL (    7638 calls)
     cdiaghg:para :      0.82s CPU      0.95s WALL (   15276 calls)
     h_psi        :     66.03s CPU     70.43s WALL (    8082 calls)
     s_psi        :      1.96s CPU      2.02s WALL (    8082 calls)
     g_psi        :      0.65s CPU      0.68s WALL (    7416 calls)

     Called by h_psi:
     h_psi:calbec :      2.22s CPU      2.35s WALL (    8082 calls)
     vloc_psi     :     61.54s CPU     65.73s WALL (    8082 calls)
     add_vuspsi   :      1.99s CPU      2.07s WALL (    8082 calls)

     General routines
     calbec       :      2.20s CPU      2.33s WALL (    8082 calls)
     fft          :      0.04s CPU      0.07s WALL (      23 calls)
     ffts         :      0.00s CPU      0.00s WALL (       2 calls)
     fftw         :     55.63s CPU     59.42s WALL (  232824 calls)
     interpolate  :      0.00s CPU      0.00s WALL (       2 calls)
 
     Parallel routines
     fft_scatt_xy :      7.41s CPU      7.89s WALL (  232849 calls)
     fft_scatt_yz :     12.83s CPU     13.74s WALL (  232849 calls)
 
     PWSCF        :   1m34.97s CPU   1m46.86s WALL

 
   This run was terminated on:  18: 0:14   7May2021            

=------------------------------------------------------------------------------=
   JOB DONE.
=------------------------------------------------------------------------------=
