
     Program BANDS v.6.7MaX starts on  7May2021 at 18: 7:42 

     This program is part of the open-source Quantum ESPRESSO suite
     for quantum simulation of materials; please cite
         "P. Giannozzi et al., J. Phys.:Condens. Matter 21 395502 (2009);
         "P. Giannozzi et al., J. Phys.:Condens. Matter 29 465901 (2017);
          URL http://www.quantum-espresso.org", 
     in publications or presentations arising from this work. More details at
     http://www.quantum-espresso.org/quote

     Parallel version (MPI), running on    10 processors

     MPI processes distributed on     1 nodes
     R & G space division:  proc/nbgrp/npool/nimage =      10

     Reading xml data from directory:

     ./outdir/MoS2.save/

     IMPORTANT: XC functional enforced from input :
     Exchange-correlation= PBE
                           (   1   4   3   4   0   0   0)
     Any further DFT definition will be discarded
     Please, verify this is what you really want

 
     Parallelization info
     --------------------
     sticks:   dense  smooth     PW     G-vecs:    dense   smooth      PW
     Min         159      80     23                24281     8582    1339
     Max         160      81     24                24290     8593    1348
     Sum        1597     805    235               242833    85865   13449
 

     negative rho (up, down):  5.015E-05 5.015E-05
     Reading collected, re-writing distributed wavefunctions
     high-symmetry point:  0.0000 0.0000 0.0000   x coordinate   0.0000
     high-symmetry point:  0.5000-0.2887 0.0000   x coordinate   0.5774
     high-symmetry point:  0.6667 0.0000 0.0000   x coordinate   0.9107
     high-symmetry point:  0.0000 0.0000 0.0000   x coordinate   1.5774

     Plottable bands (eV) written to file mos2.bands.dat.gnu
     Bands written to file mos2.bands.dat

 **************************************************************************

                    xk=(   0.00000,   0.00000,   0.00000  )

     point group C_s (m)    
     there are  2 classes
     the character table:

       E     s    
A'     1.00  1.00
A''    1.00 -1.00

     the symmetry operations in each class and the name of the first element:

     E        1
                                                                 
     s        2
                                                                 

     Band symmetry, C_s (m)     point group:

     e(  1 -  1) =    -60.21584  eV     1   --> A'             
     e(  2 -  2) =    -34.34635  eV     1   --> A'             
     e(  3 -  3) =    -34.14301  eV     1   --> A''            
     e(  4 -  4) =    -34.14291  eV     1   --> A'             
     e(  5 -  5) =    -13.39626  eV     1   --> A'             
     e(  6 -  6) =    -12.09586  eV     1   --> A'             
     e(  7 -  7) =     -4.91468  eV     1   --> A'             
     e(  8 -  8) =     -1.92045  eV     1   --> A'             
     e(  9 -  9) =     -1.91960  eV     1   --> A''            
     e( 10 - 10) =     -1.09125  eV     1   --> A'             
     e( 11 - 11) =     -0.81976  eV     1   --> A''            
     e( 12 - 12) =     -0.81602  eV     1   --> A'             
     e( 13 - 13) =      0.67689  eV     1   --> A'             
     e( 14 - 14) =      3.43541  eV     1   --> A'             
     e( 15 - 15) =      3.43971  eV     1   --> A''            
     e( 16 - 16) =      3.68263  eV     1   --> A''            
     e( 17 - 17) =      3.68439  eV     1   --> A'             

 **************************************************************************

 **************************************************************************

                    xk=(   0.01667,  -0.00962,   0.00000  )

     point group C_1 (1)    
     there are  1 classes
     the character table:

       E    
A      1.00

     the symmetry operations in each class and the name of the first element:

     E        1
                                                                 

     Band symmetry, C_1 (1)     point group:

     e(  1 -  1) =    -60.21574  eV     1   --> A              
     e(  2 -  2) =    -34.34615  eV     1   --> A              
     e(  3 -  3) =    -34.14402  eV     1   --> A              
     e(  4 -  4) =    -34.14317  eV     1   --> A              
     e(  5 -  5) =    -13.39212  eV     1   --> A              
     e(  6 -  6) =    -12.09415  eV     1   --> A              
     e(  7 -  7) =     -4.90986  eV     1   --> A              
     e(  8 -  8) =     -1.92957  eV     1   --> A              
     e(  9 -  9) =     -1.91590  eV     1   --> A              
     e( 10 - 10) =     -1.13380  eV     1   --> A              
     e( 11 - 11) =     -0.82396  eV     1   --> A              
     e( 12 - 12) =     -0.78205  eV     1   --> A              
     e( 13 - 13) =      0.67514  eV     1   --> A              
     e( 14 - 14) =      3.43133  eV     1   --> A              
     e( 15 - 15) =      3.44444  eV     1   --> A              
     e( 16 - 16) =      3.66987  eV     1   --> A              
     e( 17 - 17) =      3.67910  eV     1   --> A              

 **************************************************************************

 **************************************************************************

                    xk=(   0.03333,  -0.01925,   0.00000  )

     Band symmetry, C_1 (1)     point group:

     e(  1 -  1) =    -60.21543  eV     1   --> A              
     e(  2 -  2) =    -34.34555  eV     1   --> A              
     e(  3 -  3) =    -34.14713  eV     1   --> A              
     e(  4 -  4) =    -34.14388  eV     1   --> A              
     e(  5 -  5) =    -13.37975  eV     1   --> A              
     e(  6 -  6) =    -12.08905  eV     1   --> A              
     e(  7 -  7) =     -4.89547  eV     1   --> A              
     e(  8 -  8) =     -1.95849  eV     1   --> A              
     e(  9 -  9) =     -1.90294  eV     1   --> A              
     e( 10 - 10) =     -1.22646  eV     1   --> A              
     e( 11 - 11) =     -0.84454  eV     1   --> A              
     e( 12 - 12) =     -0.70718  eV     1   --> A              
     e( 13 - 13) =      0.66973  eV     1   --> A              
     e( 14 - 14) =      3.41139  eV     1   --> A              
     e( 15 - 15) =      3.46700  eV     1   --> A              
     e( 16 - 16) =      3.63173  eV     1   --> A              
     e( 17 - 17) =      3.66446  eV     1   --> A              

 **************************************************************************

 **************************************************************************

                    xk=(   0.05000,  -0.02887,   0.00000  )

     Band symmetry, C_1 (1)     point group:

     e(  1 -  1) =    -60.21493  eV     1   --> A              
     e(  2 -  2) =    -34.34455  eV     1   --> A              
     e(  3 -  3) =    -34.15226  eV     1   --> A              
     e(  4 -  4) =    -34.14504  eV     1   --> A              
     e(  5 -  5) =    -13.35921  eV     1   --> A              
     e(  6 -  6) =    -12.08057  eV     1   --> A              
     e(  7 -  7) =     -4.87174  eV     1   --> A              
     e(  8 -  8) =     -2.00561  eV     1   --> A              
     e(  9 -  9) =     -1.88145  eV     1   --> A              
     e( 10 - 10) =     -1.33720  eV     1   --> A              
     e( 11 - 11) =     -0.87812  eV     1   --> A              
     e( 12 - 12) =     -0.62679  eV     1   --> A              
     e( 13 - 13) =      0.66017  eV     1   --> A              
     e( 14 - 14) =      3.38083  eV     1   --> A              
     e( 15 - 15) =      3.50399  eV     1   --> A              
     e( 16 - 16) =      3.57184  eV     1   --> A              
     e( 17 - 17) =      3.64065  eV     1   --> A              

 **************************************************************************

 **************************************************************************

                    xk=(   0.06667,  -0.03849,   0.00000  )

     Band symmetry, C_1 (1)     point group:

     e(  1 -  1) =    -60.21424  eV     1   --> A              
     e(  2 -  2) =    -34.34316  eV     1   --> A              
     e(  3 -  3) =    -34.15937  eV     1   --> A              
     e(  4 -  4) =    -34.14666  eV     1   --> A              
     e(  5 -  5) =    -13.33062  eV     1   --> A              
     e(  6 -  6) =    -12.06879  eV     1   --> A              
     e(  7 -  7) =     -4.83903  eV     1   --> A              
     e(  8 -  8) =     -2.06942  eV     1   --> A              
     e(  9 -  9) =     -1.85162  eV     1   --> A              
     e( 10 - 10) =     -1.45592  eV     1   --> A              
     e( 11 - 11) =     -0.92358  eV     1   --> A              
     e( 12 - 12) =     -0.55209  eV     1   --> A              
     e( 13 - 13) =      0.64568  eV     1   --> A              
     e( 14 - 14) =      3.34387  eV     1   --> A              
     e( 15 - 15) =      3.49503  eV     1   --> A              
     e( 16 - 16) =      3.55399  eV     1   --> A              
     e( 17 - 17) =      3.60837  eV     1   --> A              

 **************************************************************************

 **************************************************************************

                    xk=(   0.08333,  -0.04811,   0.00000  )

     Band symmetry, C_1 (1)     point group:

     e(  1 -  1) =    -60.21336  eV     1   --> A              
     e(  2 -  2) =    -34.34140  eV     1   --> A              
     e(  3 -  3) =    -34.16835  eV     1   --> A              
     e(  4 -  4) =    -34.14871  eV     1   --> A              
     e(  5 -  5) =    -13.29418  eV     1   --> A              
     e(  6 -  6) =    -12.05376  eV     1   --> A              
     e(  7 -  7) =     -4.79793  eV     1   --> A              
     e(  8 -  8) =     -2.14793  eV     1   --> A              
     e(  9 -  9) =     -1.81368  eV     1   --> A              
     e( 10 - 10) =     -1.57904  eV     1   --> A              
     e( 11 - 11) =     -0.97957  eV     1   --> A              
     e( 12 - 12) =     -0.48795  eV     1   --> A              
     e( 13 - 13) =      0.62519  eV     1   --> A              
     e( 14 - 14) =      3.30543  eV     1   --> A              
     e( 15 - 15) =      3.40675  eV     1   --> A              
     e( 16 - 16) =      3.56859  eV     1   --> A              
     e( 17 - 17) =      3.61533  eV     1   --> A              

 **************************************************************************

 **************************************************************************

                    xk=(   0.10000,  -0.05774,   0.00000  )

     Band symmetry, C_1 (1)     point group:

     e(  1 -  1) =    -60.21230  eV     1   --> A              
     e(  2 -  2) =    -34.33929  eV     1   --> A              
     e(  3 -  3) =    -34.17911  eV     1   --> A              
     e(  4 -  4) =    -34.15116  eV     1   --> A              
     e(  5 -  5) =    -13.25011  eV     1   --> A              
     e(  6 -  6) =    -12.03559  eV     1   --> A              
     e(  7 -  7) =     -4.74920  eV     1   --> A              
     e(  8 -  8) =     -2.23881  eV     1   --> A              
     e(  9 -  9) =     -1.76797  eV     1   --> A              
     e( 10 - 10) =     -1.70494  eV     1   --> A              
     e( 11 - 11) =     -1.04453  eV     1   --> A              
     e( 12 - 12) =     -0.43736  eV     1   --> A              
     e( 13 - 13) =      0.59747  eV     1   --> A              
     e( 14 - 14) =      3.27069  eV     1   --> A              
     e( 15 - 15) =      3.31260  eV     1   --> A              
     e( 16 - 16) =      3.52244  eV     1   --> A              
     e( 17 - 17) =      3.68617  eV     1   --> A              

 **************************************************************************

 **************************************************************************

                    xk=(   0.11667,  -0.06736,   0.00000  )

     Band symmetry, C_1 (1)     point group:

     e(  1 -  1) =    -60.21108  eV     1   --> A              
     e(  2 -  2) =    -34.33685  eV     1   --> A              
     e(  3 -  3) =    -34.19153  eV     1   --> A              
     e(  4 -  4) =    -34.15399  eV     1   --> A              
     e(  5 -  5) =    -13.19869  eV     1   --> A              
     e(  6 -  6) =    -12.01439  eV     1   --> A              
     e(  7 -  7) =     -4.69387  eV     1   --> A              
     e(  8 -  8) =     -2.33950  eV     1   --> A              
     e(  9 -  9) =     -1.83274  eV     1   --> A              
     e( 10 - 10) =     -1.71488  eV     1   --> A              
     e( 11 - 11) =     -1.11687  eV     1   --> A              
     e( 12 - 12) =     -0.40237  eV     1   --> A              
     e( 13 - 13) =      0.56122  eV     1   --> A              
     e( 14 - 14) =      3.21795  eV     1   --> A              
     e( 15 - 15) =      3.24450  eV     1   --> A              
     e( 16 - 16) =      3.47120  eV     1   --> A              
     e( 17 - 17) =      3.76453  eV     1   --> A              

 **************************************************************************

 **************************************************************************

                    xk=(   0.13333,  -0.07698,   0.00000  )

     Band symmetry, C_1 (1)     point group:

     e(  1 -  1) =    -60.20971  eV     1   --> A              
     e(  2 -  2) =    -34.33411  eV     1   --> A              
     e(  3 -  3) =    -34.20544  eV     1   --> A              
     e(  4 -  4) =    -34.15718  eV     1   --> A              
     e(  5 -  5) =    -13.14026  eV     1   --> A              
     e(  6 -  6) =    -11.99032  eV     1   --> A              
     e(  7 -  7) =     -4.63331  eV     1   --> A              
     e(  8 -  8) =     -2.44721  eV     1   --> A              
     e(  9 -  9) =     -1.96187  eV     1   --> A              
     e( 10 - 10) =     -1.65489  eV     1   --> A              
     e( 11 - 11) =     -1.19501  eV     1   --> A              
     e( 12 - 12) =     -0.38415  eV     1   --> A              
     e( 13 - 13) =      0.51528  eV     1   --> A              
     e( 14 - 14) =      3.12769  eV     1   --> A              
     e( 15 - 15) =      3.23096  eV     1   --> A              
     e( 16 - 16) =      3.41618  eV     1   --> A              
     e( 17 - 17) =      3.84844  eV     1   --> A              

 **************************************************************************

 **************************************************************************

                    xk=(   0.15000,  -0.08660,   0.00000  )

     Band symmetry, C_1 (1)     point group:

     e(  1 -  1) =    -60.20820  eV     1   --> A              
     e(  2 -  2) =    -34.33110  eV     1   --> A              
     e(  3 -  3) =    -34.22071  eV     1   --> A              
     e(  4 -  4) =    -34.16067  eV     1   --> A              
     e(  5 -  5) =    -13.07520  eV     1   --> A              
     e(  6 -  6) =    -11.96353  eV     1   --> A              
     e(  7 -  7) =     -4.56929  eV     1   --> A              
     e(  8 -  8) =     -2.55904  eV     1   --> A              
     e(  9 -  9) =     -2.09197  eV     1   --> A              
     e( 10 - 10) =     -1.58857  eV     1   --> A              
     e( 11 - 11) =     -1.27744  eV     1   --> A              
     e( 12 - 12) =     -0.38297  eV     1   --> A              
     e( 13 - 13) =      0.45890  eV     1   --> A              
     e( 14 - 14) =      3.04603  eV     1   --> A              
     e( 15 - 15) =      3.23295  eV     1   --> A              
     e( 16 - 16) =      3.35872  eV     1   --> A              
     e( 17 - 17) =      3.93597  eV     1   --> A              

 **************************************************************************

 **************************************************************************

                    xk=(   0.16667,  -0.09623,   0.00000  )

     Band symmetry, C_1 (1)     point group:

     e(  1 -  1) =    -60.20657  eV     1   --> A              
     e(  2 -  2) =    -34.32784  eV     1   --> A              
     e(  3 -  3) =    -34.23713  eV     1   --> A              
     e(  4 -  4) =    -34.16444  eV     1   --> A              
     e(  5 -  5) =    -13.00396  eV     1   --> A              
     e(  6 -  6) =    -11.93423  eV     1   --> A              
     e(  7 -  7) =     -4.50411  eV     1   --> A              
     e(  8 -  8) =     -2.67182  eV     1   --> A              
     e(  9 -  9) =     -2.22277  eV     1   --> A              
     e( 10 - 10) =     -1.51655  eV     1   --> A              
     e( 11 - 11) =     -1.36274  eV     1   --> A              
     e( 12 - 12) =     -0.39807  eV     1   --> A              
     e( 13 - 13) =      0.39199  eV     1   --> A              
     e( 14 - 14) =      2.97628  eV     1   --> A              
     e( 15 - 15) =      3.25203  eV     1   --> A              
     e( 16 - 16) =      3.30017  eV     1   --> A              
     e( 17 - 17) =      4.02535  eV     1   --> A              

 **************************************************************************

 **************************************************************************

                    xk=(   0.18333,  -0.10585,   0.00000  )

     Band symmetry, C_1 (1)     point group:

     e(  1 -  1) =    -60.20484  eV     1   --> A              
     e(  2 -  2) =    -34.32438  eV     1   --> A              
     e(  3 -  3) =    -34.25454  eV     1   --> A              
     e(  4 -  4) =    -34.16844  eV     1   --> A              
     e(  5 -  5) =    -12.92704  eV     1   --> A              
     e(  6 -  6) =    -11.90263  eV     1   --> A              
     e(  7 -  7) =     -4.44077  eV     1   --> A              
     e(  8 -  8) =     -2.78214  eV     1   --> A              
     e(  9 -  9) =     -2.35401  eV     1   --> A              
     e( 10 - 10) =     -1.44966  eV     1   --> A              
     e( 11 - 11) =     -1.43959  eV     1   --> A              
     e( 12 - 12) =     -0.42780  eV     1   --> A              
     e( 13 - 13) =      0.31539  eV     1   --> A              
     e( 14 - 14) =      2.92072  eV     1   --> A              
     e( 15 - 15) =      3.24180  eV     1   --> A              
     e( 16 - 16) =      3.28839  eV     1   --> A              
     e( 17 - 17) =      4.11494  eV     1   --> A              

 **************************************************************************

 **************************************************************************

                    xk=(   0.20000,  -0.11547,   0.00000  )

     Band symmetry, C_1 (1)     point group:

     e(  1 -  1) =    -60.20302  eV     1   --> A              
     e(  2 -  2) =    -34.32076  eV     1   --> A              
     e(  3 -  3) =    -34.27272  eV     1   --> A              
     e(  4 -  4) =    -34.17262  eV     1   --> A              
     e(  5 -  5) =    -12.84500  eV     1   --> A              
     e(  6 -  6) =    -11.86898  eV     1   --> A              
     e(  7 -  7) =     -4.38306  eV     1   --> A              
     e(  8 -  8) =     -2.88619  eV     1   --> A              
     e(  9 -  9) =     -2.48541  eV     1   --> A              
     e( 10 - 10) =     -1.53704  eV     1   --> A              
     e( 11 - 11) =     -1.35848  eV     1   --> A              
     e( 12 - 12) =     -0.46978  eV     1   --> A              
     e( 13 - 13) =      0.23099  eV     1   --> A              
     e( 14 - 14) =      2.88052  eV     1   --> A              
     e( 15 - 15) =      3.18483  eV     1   --> A              
     e( 16 - 16) =      3.34107  eV     1   --> A              
     e( 17 - 17) =      4.20330  eV     1   --> A              

 **************************************************************************

 **************************************************************************

                    xk=(   0.21667,  -0.12509,   0.00000  )

     Band symmetry, C_1 (1)     point group:

     e(  1 -  1) =    -60.20115  eV     1   --> A              
     e(  2 -  2) =    -34.31700  eV     1   --> A              
     e(  3 -  3) =    -34.29149  eV     1   --> A              
     e(  4 -  4) =    -34.17695  eV     1   --> A              
     e(  5 -  5) =    -12.75845  eV     1   --> A              
     e(  6 -  6) =    -11.83357  eV     1   --> A              
     e(  7 -  7) =     -4.33568  eV     1   --> A              
     e(  8 -  8) =     -2.97975  eV     1   --> A              
     e(  9 -  9) =     -2.61665  eV     1   --> A              
     e( 10 - 10) =     -1.62387  eV     1   --> A              
     e( 11 - 11) =     -1.27415  eV     1   --> A              
     e( 12 - 12) =     -0.52126  eV     1   --> A              
     e( 13 - 13) =      0.14166  eV     1   --> A              
     e( 14 - 14) =      2.85580  eV     1   --> A              
     e( 15 - 15) =      3.13039  eV     1   --> A              
     e( 16 - 16) =      3.40823  eV     1   --> A              
     e( 17 - 17) =      4.28917  eV     1   --> A              

 **************************************************************************

 **************************************************************************

                    xk=(   0.23333,  -0.13472,   0.00000  )

     Band symmetry, C_1 (1)     point group:

     e(  1 -  1) =    -60.19922  eV     1   --> A              
     e(  2 -  2) =    -34.31316  eV     1   --> A              
     e(  3 -  3) =    -34.31061  eV     1   --> A              
     e(  4 -  4) =    -34.18138  eV     1   --> A              
     e(  5 -  5) =    -12.66808  eV     1   --> A              
     e(  6 -  6) =    -11.79669  eV     1   --> A              
     e(  7 -  7) =     -4.30383  eV     1   --> A              
     e(  8 -  8) =     -3.05852  eV     1   --> A              
     e(  9 -  9) =     -2.74729  eV     1   --> A              
     e( 10 - 10) =     -1.70927  eV     1   --> A              
     e( 11 - 11) =     -1.18756  eV     1   --> A              
     e( 12 - 12) =     -0.57934  eV     1   --> A              
     e( 13 - 13) =      0.05114  eV     1   --> A              
     e( 14 - 14) =      2.84590  eV     1   --> A              
     e( 15 - 15) =      3.07951  eV     1   --> A              
     e( 16 - 16) =      3.48746  eV     1   --> A              
     e( 17 - 17) =      4.37153  eV     1   --> A              

 **************************************************************************

 **************************************************************************

                    xk=(   0.25000,  -0.14434,   0.00000  )

     Band symmetry, C_1 (1)     point group:

     e(  1 -  1) =    -60.19728  eV     1   --> A              
     e(  2 -  2) =    -34.32989  eV     1   --> A              
     e(  3 -  3) =    -34.30927  eV     1   --> A              
     e(  4 -  4) =    -34.18584  eV     1   --> A              
     e(  5 -  5) =    -12.57466  eV     1   --> A              
     e(  6 -  6) =    -11.75870  eV     1   --> A              
     e(  7 -  7) =     -4.29237  eV     1   --> A              
     e(  8 -  8) =     -3.11903  eV     1   --> A              
     e(  9 -  9) =     -2.87682  eV     1   --> A              
     e( 10 - 10) =     -1.79245  eV     1   --> A              
     e( 11 - 11) =     -1.09978  eV     1   --> A              
     e( 12 - 12) =     -0.64129  eV     1   --> A              
     e( 13 - 13) =     -0.03630  eV     1   --> A              
     e( 14 - 14) =      2.84957  eV     1   --> A              
     e( 15 - 15) =      3.03311  eV     1   --> A              
     e( 16 - 16) =      3.57607  eV     1   --> A              
     e( 17 - 17) =      4.44954  eV     1   --> A              

 **************************************************************************

 **************************************************************************

                    xk=(   0.26667,  -0.15396,   0.00000  )

     Band symmetry, C_1 (1)     point group:

     e(  1 -  1) =    -60.19534  eV     1   --> A              
     e(  2 -  2) =    -34.34911  eV     1   --> A              
     e(  3 -  3) =    -34.30538  eV     1   --> A              
     e(  4 -  4) =    -34.19031  eV     1   --> A              
     e(  5 -  5) =    -12.47901  eV     1   --> A              
     e(  6 -  6) =    -11.71996  eV     1   --> A              
     e(  7 -  7) =     -4.30417  eV     1   --> A              
     e(  8 -  8) =     -3.16005  eV     1   --> A              
     e(  9 -  9) =     -3.00457  eV     1   --> A              
     e( 10 - 10) =     -1.87274  eV     1   --> A              
     e( 11 - 11) =     -1.01192  eV     1   --> A              
     e( 12 - 12) =     -0.70469  eV     1   --> A              
     e( 13 - 13) =     -0.11613  eV     1   --> A              
     e( 14 - 14) =      2.86522  eV     1   --> A              
     e( 15 - 15) =      2.99196  eV     1   --> A              
     e( 16 - 16) =      3.67123  eV     1   --> A              
     e( 17 - 17) =      4.52257  eV     1   --> A              

 **************************************************************************

 **************************************************************************

                    xk=(   0.28333,  -0.16358,   0.00000  )

     Band symmetry, C_1 (1)     point group:

     e(  1 -  1) =    -60.19341  eV     1   --> A              
     e(  2 -  2) =    -34.36807  eV     1   --> A              
     e(  3 -  3) =    -34.30153  eV     1   --> A              
     e(  4 -  4) =    -34.19471  eV     1   --> A              
     e(  5 -  5) =    -12.38204  eV     1   --> A              
     e(  6 -  6) =    -11.68087  eV     1   --> A              
     e(  7 -  7) =     -4.33880  eV     1   --> A              
     e(  8 -  8) =     -3.18381  eV     1   --> A              
     e(  9 -  9) =     -3.12978  eV     1   --> A              
     e( 10 - 10) =     -1.94953  eV     1   --> A              
     e( 11 - 11) =     -0.92511  eV     1   --> A              
     e( 12 - 12) =     -0.76751  eV     1   --> A              
     e( 13 - 13) =     -0.18397  eV     1   --> A              
     e( 14 - 14) =      2.89117  eV     1   --> A              
     e( 15 - 15) =      2.95669  eV     1   --> A              
     e( 16 - 16) =      3.77017  eV     1   --> A              
     e( 17 - 17) =      4.59017  eV     1   --> A              

 **************************************************************************

 **************************************************************************

                    xk=(   0.30000,  -0.17321,   0.00000  )

     Band symmetry, C_1 (1)     point group:

     e(  1 -  1) =    -60.19153  eV     1   --> A              
     e(  2 -  2) =    -34.38655  eV     1   --> A              
     e(  3 -  3) =    -34.29776  eV     1   --> A              
     e(  4 -  4) =    -34.19902  eV     1   --> A              
     e(  5 -  5) =    -12.28474  eV     1   --> A              
     e(  6 -  6) =    -11.64186  eV     1   --> A              
     e(  7 -  7) =     -4.39264  eV     1   --> A              
     e(  8 -  8) =     -3.25156  eV     1   --> A              
     e(  9 -  9) =     -3.19556  eV     1   --> A              
     e( 10 - 10) =     -2.02232  eV     1   --> A              
     e( 11 - 11) =     -0.84052  eV     1   --> A              
     e( 12 - 12) =     -0.82816  eV     1   --> A              
     e( 13 - 13) =     -0.23602  eV     1   --> A              
     e( 14 - 14) =      2.92561  eV     1   --> A              
     e( 15 - 15) =      2.92785  eV     1   --> A              
     e( 16 - 16) =      3.87021  eV     1   --> A              
     e( 17 - 17) =      4.65205  eV     1   --> A              

 **************************************************************************

 **************************************************************************

                    xk=(   0.31667,  -0.18283,   0.00000  )

     Band symmetry, C_1 (1)     point group:

     e(  1 -  1) =    -60.18971  eV     1   --> A              
     e(  2 -  2) =    -34.40436  eV     1   --> A              
     e(  3 -  3) =    -34.29411  eV     1   --> A              
     e(  4 -  4) =    -34.20318  eV     1   --> A              
     e(  5 -  5) =    -12.18819  eV     1   --> A              
     e(  6 -  6) =    -11.60338  eV     1   --> A              
     e(  7 -  7) =     -4.46038  eV     1   --> A              
     e(  8 -  8) =     -3.36896  eV     1   --> A              
     e(  9 -  9) =     -3.20166  eV     1   --> A              
     e( 10 - 10) =     -2.09066  eV     1   --> A              
     e( 11 - 11) =     -0.88541  eV     1   --> A              
     e( 12 - 12) =     -0.75926  eV     1   --> A              
     e( 13 - 13) =     -0.26945  eV     1   --> A              
     e( 14 - 14) =      2.90531  eV     1   --> A              
     e( 15 - 15) =      2.96727  eV     1   --> A              
     e( 16 - 16) =      3.96883  eV     1   --> A              
     e( 17 - 17) =      4.70810  eV     1   --> A              

 **************************************************************************

 **************************************************************************

                    xk=(   0.33333,  -0.19245,   0.00000  )

     Band symmetry, C_1 (1)     point group:

     e(  1 -  1) =    -60.18798  eV     1   --> A              
     e(  2 -  2) =    -34.42132  eV     1   --> A              
     e(  3 -  3) =    -34.29063  eV     1   --> A              
     e(  4 -  4) =    -34.20715  eV     1   --> A              
     e(  5 -  5) =    -12.09354  eV     1   --> A              
     e(  6 -  6) =    -11.56591  eV     1   --> A              
     e(  7 -  7) =     -4.53663  eV     1   --> A              
     e(  8 -  8) =     -3.48094  eV     1   --> A              
     e(  9 -  9) =     -3.20767  eV     1   --> A              
     e( 10 - 10) =     -2.15416  eV     1   --> A              
     e( 11 - 11) =     -0.93843  eV     1   --> A              
     e( 12 - 12) =     -0.68239  eV     1   --> A              
     e( 13 - 13) =     -0.28286  eV     1   --> A              
     e( 14 - 14) =      2.88942  eV     1   --> A              
     e( 15 - 15) =      3.01426  eV     1   --> A              
     e( 16 - 16) =      4.06370  eV     1   --> A              
     e( 17 - 17) =      4.75830  eV     1   --> A              

 **************************************************************************

 **************************************************************************

                    xk=(   0.35000,  -0.20207,   0.00000  )

     Band symmetry, C_1 (1)     point group:

     e(  1 -  1) =    -60.18634  eV     1   --> A              
     e(  2 -  2) =    -34.43724  eV     1   --> A              
     e(  3 -  3) =    -34.28736  eV     1   --> A              
     e(  4 -  4) =    -34.21088  eV     1   --> A              
     e(  5 -  5) =    -12.00203  eV     1   --> A              
     e(  6 -  6) =    -11.52994  eV     1   --> A              
     e(  7 -  7) =     -4.61673  eV     1   --> A              
     e(  8 -  8) =     -3.58643  eV     1   --> A              
     e(  9 -  9) =     -3.21724  eV     1   --> A              
     e( 10 - 10) =     -2.21250  eV     1   --> A              
     e( 11 - 11) =     -0.98663  eV     1   --> A              
     e( 12 - 12) =     -0.61088  eV     1   --> A              
     e( 13 - 13) =     -0.27655  eV     1   --> A              
     e( 14 - 14) =      2.87977  eV     1   --> A              
     e( 15 - 15) =      3.06528  eV     1   --> A              
     e( 16 - 16) =      4.15279  eV     1   --> A              
     e( 17 - 17) =      4.80274  eV     1   --> A              

 **************************************************************************

 **************************************************************************

                    xk=(   0.36667,  -0.21170,   0.00000  )

     Band symmetry, C_1 (1)     point group:

     e(  1 -  1) =    -60.18482  eV     1   --> A              
     e(  2 -  2) =    -34.45195  eV     1   --> A              
     e(  3 -  3) =    -34.28432  eV     1   --> A              
     e(  4 -  4) =    -34.21434  eV     1   --> A              
     e(  5 -  5) =    -11.91495  eV     1   --> A              
     e(  6 -  6) =    -11.49598  eV     1   --> A              
     e(  7 -  7) =     -4.69692  eV     1   --> A              
     e(  8 -  8) =     -3.68436  eV     1   --> A              
     e(  9 -  9) =     -3.23186  eV     1   --> A              
     e( 10 - 10) =     -2.26538  eV     1   --> A              
     e( 11 - 11) =     -1.02969  eV     1   --> A              
     e( 12 - 12) =     -0.54554  eV     1   --> A              
     e( 13 - 13) =     -0.25250  eV     1   --> A              
     e( 14 - 14) =      2.87581  eV     1   --> A              
     e( 15 - 15) =      3.11892  eV     1   --> A              
     e( 16 - 16) =      4.23439  eV     1   --> A              
     e( 17 - 17) =      4.84159  eV     1   --> A              

 **************************************************************************

 **************************************************************************

                    xk=(   0.38333,  -0.22132,   0.00000  )

     Band symmetry, C_1 (1)     point group:

     e(  1 -  1) =    -60.18344  eV     1   --> A              
     e(  2 -  2) =    -34.46531  eV     1   --> A              
     e(  3 -  3) =    -34.28155  eV     1   --> A              
     e(  4 -  4) =    -34.21748  eV     1   --> A              
     e(  5 -  5) =    -11.83366  eV     1   --> A              
     e(  6 -  6) =    -11.46453  eV     1   --> A              
     e(  7 -  7) =     -4.77417  eV     1   --> A              
     e(  8 -  8) =     -3.77368  eV     1   --> A              
     e(  9 -  9) =     -3.25130  eV     1   --> A              
     e( 10 - 10) =     -2.31256  eV     1   --> A              
     e( 11 - 11) =     -1.06746  eV     1   --> A              
     e( 12 - 12) =     -0.48705  eV     1   --> A              
     e( 13 - 13) =     -0.21419  eV     1   --> A              
     e( 14 - 14) =      2.87669  eV     1   --> A              
     e( 15 - 15) =      3.17373  eV     1   --> A              
     e( 16 - 16) =      4.30715  eV     1   --> A              
     e( 17 - 17) =      4.87507  eV     1   --> A              

 **************************************************************************

 **************************************************************************

                    xk=(   0.40000,  -0.23094,   0.00000  )

     Band symmetry, C_1 (1)     point group:

     e(  1 -  1) =    -60.18222  eV     1   --> A              
     e(  2 -  2) =    -34.47718  eV     1   --> A              
     e(  3 -  3) =    -34.27908  eV     1   --> A              
     e(  4 -  4) =    -34.22027  eV     1   --> A              
     e(  5 -  5) =    -11.75954  eV     1   --> A              
     e(  6 -  6) =    -11.43607  eV     1   --> A              
     e(  7 -  7) =     -4.84604  eV     1   --> A              
     e(  8 -  8) =     -3.85339  eV     1   --> A              
     e(  9 -  9) =     -3.27411  eV     1   --> A              
     e( 10 - 10) =     -2.35384  eV     1   --> A              
     e( 11 - 11) =     -1.09990  eV     1   --> A              
     e( 12 - 12) =     -0.43590  eV     1   --> A              
     e( 13 - 13) =     -0.16620  eV     1   --> A              
     e( 14 - 14) =      2.88135  eV     1   --> A              
     e( 15 - 15) =      3.22816  eV     1   --> A              
     e( 16 - 16) =      4.37019  eV     1   --> A              
     e( 17 - 17) =      4.90341  eV     1   --> A              

 **************************************************************************

 **************************************************************************

                    xk=(   0.41667,  -0.24056,   0.00000  )

     Band symmetry, C_1 (1)     point group:

     e(  1 -  1) =    -60.18115  eV     1   --> A              
     e(  2 -  2) =    -34.48743  eV     1   --> A              
     e(  3 -  3) =    -34.27695  eV     1   --> A              
     e(  4 -  4) =    -34.22269  eV     1   --> A              
     e(  5 -  5) =    -11.69394  eV     1   --> A              
     e(  6 -  6) =    -11.41108  eV     1   --> A              
     e(  7 -  7) =     -4.91048  eV     1   --> A              
     e(  8 -  8) =     -3.92257  eV     1   --> A              
     e(  9 -  9) =     -3.29823  eV     1   --> A              
     e( 10 - 10) =     -2.38904  eV     1   --> A              
     e( 11 - 11) =     -1.12707  eV     1   --> A              
     e( 12 - 12) =     -0.39242  eV     1   --> A              
     e( 13 - 13) =     -0.11366  eV     1   --> A              
     e( 14 - 14) =      2.88853  eV     1   --> A              
     e( 15 - 15) =      3.28040  eV     1   --> A              
     e( 16 - 16) =      4.42303  eV     1   --> A              
     e( 17 - 17) =      4.92687  eV     1   --> A              

 **************************************************************************

 **************************************************************************

                    xk=(   0.43333,  -0.25019,   0.00000  )

     Band symmetry, C_1 (1)     point group:

     e(  1 -  1) =    -60.18026  eV     1   --> A              
     e(  2 -  2) =    -34.49597  eV     1   --> A              
     e(  3 -  3) =    -34.27517  eV     1   --> A              
     e(  4 -  4) =    -34.22470  eV     1   --> A              
     e(  5 -  5) =    -11.63816  eV     1   --> A              
     e(  6 -  6) =    -11.38998  eV     1   --> A              
     e(  7 -  7) =     -4.96572  eV     1   --> A              
     e(  8 -  8) =     -3.98038  eV     1   --> A              
     e(  9 -  9) =     -3.32147  eV     1   --> A              
     e( 10 - 10) =     -2.41803  eV     1   --> A              
     e( 11 - 11) =     -1.14906  eV     1   --> A              
     e( 12 - 12) =     -0.35680  eV     1   --> A              
     e( 13 - 13) =     -0.06181  eV     1   --> A              
     e( 14 - 14) =      2.89689  eV     1   --> A              
     e( 15 - 15) =      3.32837  eV     1   --> A              
     e( 16 - 16) =      4.46560  eV     1   --> A              
     e( 17 - 17) =      4.94570  eV     1   --> A              

 **************************************************************************

 **************************************************************************

                    xk=(   0.45000,  -0.25981,   0.00000  )

     Band symmetry, C_1 (1)     point group:

     e(  1 -  1) =    -60.17956  eV     1   --> A              
     e(  2 -  2) =    -34.50270  eV     1   --> A              
     e(  3 -  3) =    -34.27377  eV     1   --> A              
     e(  4 -  4) =    -34.22629  eV     1   --> A              
     e(  5 -  5) =    -11.59339  eV     1   --> A              
     e(  6 -  6) =    -11.37315  eV     1   --> A              
     e(  7 -  7) =     -5.01031  eV     1   --> A              
     e(  8 -  8) =     -4.02611  eV     1   --> A              
     e(  9 -  9) =     -3.34181  eV     1   --> A              
     e( 10 - 10) =     -2.44069  eV     1   --> A              
     e( 11 - 11) =     -1.16601  eV     1   --> A              
     e( 12 - 12) =     -0.32912  eV     1   --> A              
     e( 13 - 13) =     -0.01558  eV     1   --> A              
     e( 14 - 14) =      2.90509  eV     1   --> A              
     e( 15 - 15) =      3.36966  eV     1   --> A              
     e( 16 - 16) =      4.49810  eV     1   --> A              
     e( 17 - 17) =      4.96009  eV     1   --> A              

 **************************************************************************

 **************************************************************************

                    xk=(   0.46667,  -0.26943,   0.00000  )

     Band symmetry, C_1 (1)     point group:

     e(  1 -  1) =    -60.17906  eV     1   --> A              
     e(  2 -  2) =    -34.50755  eV     1   --> A              
     e(  3 -  3) =    -34.27275  eV     1   --> A              
     e(  4 -  4) =    -34.22744  eV     1   --> A              
     e(  5 -  5) =    -11.56063  eV     1   --> A              
     e(  6 -  6) =    -11.36089  eV     1   --> A              
     e(  7 -  7) =     -5.04306  eV     1   --> A              
     e(  8 -  8) =     -4.05921  eV     1   --> A              
     e(  9 -  9) =     -3.35756  eV     1   --> A              
     e( 10 - 10) =     -2.45693  eV     1   --> A              
     e( 11 - 11) =     -1.17802  eV     1   --> A              
     e( 12 - 12) =     -0.30939  eV     1   --> A              
     e( 13 - 13) =      0.02077  eV     1   --> A              
     e( 14 - 14) =      2.91192  eV     1   --> A              
     e( 15 - 15) =      3.40171  eV     1   --> A              
     e( 16 - 16) =      4.52090  eV     1   --> A              
     e( 17 - 17) =      4.97024  eV     1   --> A              

 **************************************************************************

 **************************************************************************

                    xk=(   0.48333,  -0.27905,   0.00000  )

     Band symmetry, C_1 (1)     point group:

     e(  1 -  1) =    -60.17875  eV     1   --> A              
     e(  2 -  2) =    -34.51048  eV     1   --> A              
     e(  3 -  3) =    -34.27214  eV     1   --> A              
     e(  4 -  4) =    -34.22813  eV     1   --> A              
     e(  5 -  5) =    -11.54066  eV     1   --> A              
     e(  6 -  6) =    -11.35344  eV     1   --> A              
     e(  7 -  7) =     -5.06307  eV     1   --> A              
     e(  8 -  8) =     -4.07923  eV     1   --> A              
     e(  9 -  9) =     -3.36750  eV     1   --> A              
     e( 10 - 10) =     -2.46670  eV     1   --> A              
     e( 11 - 11) =     -1.18518  eV     1   --> A              
     e( 12 - 12) =     -0.29757  eV     1   --> A              
     e( 13 - 13) =      0.04397  eV     1   --> A              
     e( 14 - 14) =      2.91644  eV     1   --> A              
     e( 15 - 15) =      3.42211  eV     1   --> A              
     e( 16 - 16) =      4.53438  eV     1   --> A              
     e( 17 - 17) =      4.97627  eV     1   --> A              

 **************************************************************************

 **************************************************************************

                    xk=(   0.50000,  -0.28868,   0.00000  )

     Band symmetry, C_1 (1)     point group:

     e(  1 -  1) =    -60.17865  eV     1   --> A              
     e(  2 -  2) =    -34.51147  eV     1   --> A              
     e(  3 -  3) =    -34.27193  eV     1   --> A              
     e(  4 -  4) =    -34.22836  eV     1   --> A              
     e(  5 -  5) =    -11.53394  eV     1   --> A              
     e(  6 -  6) =    -11.35094  eV     1   --> A              
     e(  7 -  7) =     -5.06981  eV     1   --> A              
     e(  8 -  8) =     -4.08594  eV     1   --> A              
     e(  9 -  9) =     -3.37090  eV     1   --> A              
     e( 10 - 10) =     -2.46996  eV     1   --> A              
     e( 11 - 11) =     -1.18756  eV     1   --> A              
     e( 12 - 12) =     -0.29363  eV     1   --> A              
     e( 13 - 13) =      0.05194  eV     1   --> A              
     e( 14 - 14) =      2.91801  eV     1   --> A              
     e( 15 - 15) =      3.42912  eV     1   --> A              
     e( 16 - 16) =      4.53884  eV     1   --> A              
     e( 17 - 17) =      4.97828  eV     1   --> A              

 **************************************************************************

 **************************************************************************

                    xk=(   0.50833,  -0.27424,   0.00000  )

     Band symmetry, C_1 (1)     point group:

     e(  1 -  1) =    -60.17863  eV     1   --> A              
     e(  2 -  2) =    -34.51115  eV     1   --> A              
     e(  3 -  3) =    -34.27188  eV     1   --> A              
     e(  4 -  4) =    -34.22901  eV     1   --> A              
     e(  5 -  5) =    -11.53257  eV     1   --> A              
     e(  6 -  6) =    -11.35009  eV     1   --> A              
     e(  7 -  7) =     -5.06570  eV     1   --> A              
     e(  8 -  8) =     -4.08922  eV     1   --> A              
     e(  9 -  9) =     -3.36945  eV     1   --> A              
     e( 10 - 10) =     -2.47082  eV     1   --> A              
     e( 11 - 11) =     -1.18657  eV     1   --> A              
     e( 12 - 12) =     -0.32448  eV     1   --> A              
     e( 13 - 13) =      0.06859  eV     1   --> A              
     e( 14 - 14) =      2.91963  eV     1   --> A              
     e( 15 - 15) =      3.43042  eV     1   --> A              
     e( 16 - 16) =      4.54454  eV     1   --> A              
     e( 17 - 17) =      4.96539  eV     1   --> A              

 **************************************************************************

 **************************************************************************

                    xk=(   0.51667,  -0.25981,   0.00000  )

     Band symmetry, C_1 (1)     point group:

     e(  1 -  1) =    -60.17855  eV     1   --> A              
     e(  2 -  2) =    -34.51021  eV     1   --> A              
     e(  3 -  3) =    -34.27173  eV     1   --> A              
     e(  4 -  4) =    -34.23093  eV     1   --> A              
     e(  5 -  5) =    -11.52848  eV     1   --> A              
     e(  6 -  6) =    -11.34753  eV     1   --> A              
     e(  7 -  7) =     -5.05342  eV     1   --> A              
     e(  8 -  8) =     -4.09903  eV     1   --> A              
     e(  9 -  9) =     -3.36514  eV     1   --> A              
     e( 10 - 10) =     -2.47318  eV     1   --> A              
     e( 11 - 11) =     -1.18379  eV     1   --> A              
     e( 12 - 12) =     -0.40416  eV     1   --> A              
     e( 13 - 13) =      0.10624  eV     1   --> A              
     e( 14 - 14) =      2.92393  eV     1   --> A              
     e( 15 - 15) =      3.43468  eV     1   --> A              
     e( 16 - 16) =      4.56121  eV     1   --> A              
     e( 17 - 17) =      4.92822  eV     1   --> A              

 **************************************************************************

 **************************************************************************

                    xk=(   0.52500,  -0.24537,   0.00000  )

     Band symmetry, C_1 (1)     point group:

     e(  1 -  1) =    -60.17842  eV     1   --> A              
     e(  2 -  2) =    -34.50866  eV     1   --> A              
     e(  3 -  3) =    -34.27149  eV     1   --> A              
     e(  4 -  4) =    -34.23410  eV     1   --> A              
     e(  5 -  5) =    -11.52174  eV     1   --> A              
     e(  6 -  6) =    -11.34332  eV     1   --> A              
     e(  7 -  7) =     -5.03301  eV     1   --> A              
     e(  8 -  8) =     -4.11529  eV     1   --> A              
     e(  9 -  9) =     -3.35807  eV     1   --> A              
     e( 10 - 10) =     -2.47637  eV     1   --> A              
     e( 11 - 11) =     -1.17982  eV     1   --> A              
     e( 12 - 12) =     -0.51464  eV     1   --> A              
     e( 13 - 13) =      0.14850  eV     1   --> A              
     e( 14 - 14) =      2.92930  eV     1   --> A              
     e( 15 - 15) =      3.44290  eV     1   --> A              
     e( 16 - 16) =      4.58711  eV     1   --> A              
     e( 17 - 17) =      4.87127  eV     1   --> A              

 **************************************************************************

 **************************************************************************

                    xk=(   0.53333,  -0.23094,   0.00000  )

     Band symmetry, C_1 (1)     point group:

     e(  1 -  1) =    -60.17825  eV     1   --> A              
     e(  2 -  2) =    -34.50649  eV     1   --> A              
     e(  3 -  3) =    -34.27114  eV     1   --> A              
     e(  4 -  4) =    -34.23849  eV     1   --> A              
     e(  5 -  5) =    -11.51245  eV     1   --> A              
     e(  6 -  6) =    -11.33753  eV     1   --> A              
     e(  7 -  7) =     -5.00461  eV     1   --> A              
     e(  8 -  8) =     -4.13783  eV     1   --> A              
     e(  9 -  9) =     -3.34842  eV     1   --> A              
     e( 10 - 10) =     -2.47946  eV     1   --> A              
     e( 11 - 11) =     -1.17550  eV     1   --> A              
     e( 12 - 12) =     -0.64607  eV     1   --> A              
     e( 13 - 13) =      0.18808  eV     1   --> A              
     e( 14 - 14) =      2.93326  eV     1   --> A              
     e( 15 - 15) =      3.45664  eV     1   --> A              
     e( 16 - 16) =      4.61618  eV     1   --> A              
     e( 17 - 17) =      4.80443  eV     1   --> A              

 **************************************************************************

 **************************************************************************

                    xk=(   0.54167,  -0.21650,   0.00000  )

     Band symmetry, C_1 (1)     point group:

     e(  1 -  1) =    -60.17804  eV     1   --> A              
     e(  2 -  2) =    -34.50372  eV     1   --> A              
     e(  3 -  3) =    -34.27072  eV     1   --> A              
     e(  4 -  4) =    -34.24403  eV     1   --> A              
     e(  5 -  5) =    -11.50079  eV     1   --> A              
     e(  6 -  6) =    -11.33027  eV     1   --> A              
     e(  7 -  7) =     -4.96837  eV     1   --> A              
     e(  8 -  8) =     -4.16634  eV     1   --> A              
     e(  9 -  9) =     -3.33640  eV     1   --> A              
     e( 10 - 10) =     -2.48133  eV     1   --> A              
     e( 11 - 11) =     -1.17189  eV     1   --> A              
     e( 12 - 12) =     -0.79338  eV     1   --> A              
     e( 13 - 13) =      0.22314  eV     1   --> A              
     e( 14 - 14) =      2.93294  eV     1   --> A              
     e( 15 - 15) =      3.47765  eV     1   --> A              
     e( 16 - 16) =      4.62032  eV     1   --> A              
     e( 17 - 17) =      4.75976  eV     1   --> A              

 **************************************************************************

 **************************************************************************

                    xk=(   0.55000,  -0.20207,   0.00000  )

     Band symmetry, C_1 (1)     point group:

     e(  1 -  1) =    -60.17778  eV     1   --> A              
     e(  2 -  2) =    -34.50036  eV     1   --> A              
     e(  3 -  3) =    -34.27021  eV     1   --> A              
     e(  4 -  4) =    -34.25066  eV     1   --> A              
     e(  5 -  5) =    -11.48693  eV     1   --> A              
     e(  6 -  6) =    -11.32168  eV     1   --> A              
     e(  7 -  7) =     -4.92449  eV     1   --> A              
     e(  8 -  8) =     -4.20037  eV     1   --> A              
     e(  9 -  9) =     -3.32234  eV     1   --> A              
     e( 10 - 10) =     -2.48089  eV     1   --> A              
     e( 11 - 11) =     -1.17008  eV     1   --> A              
     e( 12 - 12) =     -0.95322  eV     1   --> A              
     e( 13 - 13) =      0.25402  eV     1   --> A              
     e( 14 - 14) =      2.92570  eV     1   --> A              
     e( 15 - 15) =      3.50737  eV     1   --> A              
     e( 16 - 16) =      4.55817  eV     1   --> A              
     e( 17 - 17) =      4.78220  eV     1   --> A              

 **************************************************************************

 **************************************************************************

                    xk=(   0.55833,  -0.18764,   0.00000  )

     Band symmetry, C_1 (1)     point group:

     e(  1 -  1) =    -60.17750  eV     1   --> A              
     e(  2 -  2) =    -34.49643  eV     1   --> A              
     e(  3 -  3) =    -34.26964  eV     1   --> A              
     e(  4 -  4) =    -34.25829  eV     1   --> A              
     e(  5 -  5) =    -11.47114  eV     1   --> A              
     e(  6 -  6) =    -11.31191  eV     1   --> A              
     e(  7 -  7) =     -4.87322  eV     1   --> A              
     e(  8 -  8) =     -4.23928  eV     1   --> A              
     e(  9 -  9) =     -3.30660  eV     1   --> A              
     e( 10 - 10) =     -2.47717  eV     1   --> A              
     e( 11 - 11) =     -1.17112  eV     1   --> A              
     e( 12 - 12) =     -1.12288  eV     1   --> A              
     e( 13 - 13) =      0.28195  eV     1   --> A              
     e( 14 - 14) =      2.90973  eV     1   --> A              
     e( 15 - 15) =      3.54639  eV     1   --> A              
     e( 16 - 16) =      4.46535  eV     1   --> A              
     e( 17 - 17) =      4.83894  eV     1   --> A              

 **************************************************************************

 **************************************************************************

                    xk=(   0.56667,  -0.17320,   0.00000  )

     Band symmetry, C_1 (1)     point group:

     e(  1 -  1) =    -60.17718  eV     1   --> A              
     e(  2 -  2) =    -34.49196  eV     1   --> A              
     e(  3 -  3) =    -34.26901  eV     1   --> A              
     e(  4 -  4) =    -34.26682  eV     1   --> A              
     e(  5 -  5) =    -11.45369  eV     1   --> A              
     e(  6 -  6) =    -11.30117  eV     1   --> A              
     e(  7 -  7) =     -4.81487  eV     1   --> A              
     e(  8 -  8) =     -4.28225  eV     1   --> A              
     e(  9 -  9) =     -3.28961  eV     1   --> A              
     e( 10 - 10) =     -2.46944  eV     1   --> A              
     e( 11 - 11) =     -1.29991  eV     1   --> A              
     e( 12 - 12) =     -1.17594  eV     1   --> A              
     e( 13 - 13) =      0.30837  eV     1   --> A              
     e( 14 - 14) =      2.88434  eV     1   --> A              
     e( 15 - 15) =      3.59429  eV     1   --> A              
     e( 16 - 16) =      4.36630  eV     1   --> A              
     e( 17 - 17) =      4.90752  eV     1   --> A              

 **************************************************************************

 **************************************************************************

                    xk=(   0.57500,  -0.15877,   0.00000  )

     Band symmetry, C_1 (1)     point group:

     e(  1 -  1) =    -60.17684  eV     1   --> A              
     e(  2 -  2) =    -34.48696  eV     1   --> A              
     e(  3 -  3) =    -34.27614  eV     1   --> A              
     e(  4 -  4) =    -34.26834  eV     1   --> A              
     e(  5 -  5) =    -11.43490  eV     1   --> A              
     e(  6 -  6) =    -11.28967  eV     1   --> A              
     e(  7 -  7) =     -4.74978  eV     1   --> A              
     e(  8 -  8) =     -4.32829  eV     1   --> A              
     e(  9 -  9) =     -3.27188  eV     1   --> A              
     e( 10 - 10) =     -2.45723  eV     1   --> A              
     e( 11 - 11) =     -1.48193  eV     1   --> A              
     e( 12 - 12) =     -1.18525  eV     1   --> A              
     e( 13 - 13) =      0.33472  eV     1   --> A              
     e( 14 - 14) =      2.84982  eV     1   --> A              
     e( 15 - 15) =      3.64979  eV     1   --> A              
     e( 16 - 16) =      4.26831  eV     1   --> A              
     e( 17 - 17) =      4.98176  eV     1   --> A              

 **************************************************************************

 **************************************************************************

                    xk=(   0.58333,  -0.14433,   0.00000  )

     Band symmetry, C_1 (1)     point group:

     e(  1 -  1) =    -60.17649  eV     1   --> A              
     e(  2 -  2) =    -34.48147  eV     1   --> A              
     e(  3 -  3) =    -34.28613  eV     1   --> A              
     e(  4 -  4) =    -34.26764  eV     1   --> A              
     e(  5 -  5) =    -11.41516  eV     1   --> A              
     e(  6 -  6) =    -11.27766  eV     1   --> A              
     e(  7 -  7) =     -4.67836  eV     1   --> A              
     e(  8 -  8) =     -4.37627  eV     1   --> A              
     e(  9 -  9) =     -3.25400  eV     1   --> A              
     e( 10 - 10) =     -2.44036  eV     1   --> A              
     e( 11 - 11) =     -1.66660  eV     1   --> A              
     e( 12 - 12) =     -1.19956  eV     1   --> A              
     e( 13 - 13) =      0.36226  eV     1   --> A              
     e( 14 - 14) =      2.80709  eV     1   --> A              
     e( 15 - 15) =      3.71119  eV     1   --> A              
     e( 16 - 16) =      4.17499  eV     1   --> A              
     e( 17 - 17) =      5.05850  eV     1   --> A              

 **************************************************************************

 **************************************************************************

                    xk=(   0.59167,  -0.12990,   0.00000  )

     Band symmetry, C_1 (1)     point group:

     e(  1 -  1) =    -60.17613  eV     1   --> A              
     e(  2 -  2) =    -34.47552  eV     1   --> A              
     e(  3 -  3) =    -34.29665  eV     1   --> A              
     e(  4 -  4) =    -34.26692  eV     1   --> A              
     e(  5 -  5) =    -11.39485  eV     1   --> A              
     e(  6 -  6) =    -11.26539  eV     1   --> A              
     e(  7 -  7) =     -4.60109  eV     1   --> A              
     e(  8 -  8) =     -4.42499  eV     1   --> A              
     e(  9 -  9) =     -3.23670  eV     1   --> A              
     e( 10 - 10) =     -2.41890  eV     1   --> A              
     e( 11 - 11) =     -1.85152  eV     1   --> A              
     e( 12 - 12) =     -1.21906  eV     1   --> A              
     e( 13 - 13) =      0.39191  eV     1   --> A              
     e( 14 - 14) =      2.75745  eV     1   --> A              
     e( 15 - 15) =      3.77656  eV     1   --> A              
     e( 16 - 16) =      4.08862  eV     1   --> A              
     e( 17 - 17) =      5.13524  eV     1   --> A              

 **************************************************************************

 **************************************************************************

                    xk=(   0.60000,  -0.11547,   0.00000  )

     Band symmetry, C_1 (1)     point group:

     e(  1 -  1) =    -60.17577  eV     1   --> A              
     e(  2 -  2) =    -34.46915  eV     1   --> A              
     e(  3 -  3) =    -34.30756  eV     1   --> A              
     e(  4 -  4) =    -34.26621  eV     1   --> A              
     e(  5 -  5) =    -11.37443  eV     1   --> A              
     e(  6 -  6) =    -11.25315  eV     1   --> A              
     e(  7 -  7) =     -4.51852  eV     1   --> A              
     e(  8 -  8) =     -4.47319  eV     1   --> A              
     e(  9 -  9) =     -3.22091  eV     1   --> A              
     e( 10 - 10) =     -2.39319  eV     1   --> A              
     e( 11 - 11) =     -2.03413  eV     1   --> A              
     e( 12 - 12) =     -1.24365  eV     1   --> A              
     e( 13 - 13) =      0.42423  eV     1   --> A              
     e( 14 - 14) =      2.70245  eV     1   --> A              
     e( 15 - 15) =      3.84398  eV     1   --> A              
     e( 16 - 16) =      4.01078  eV     1   --> A              
     e( 17 - 17) =      5.20974  eV     1   --> A              

 **************************************************************************

 **************************************************************************

                    xk=(   0.60834,  -0.10103,   0.00000  )

     Band symmetry, C_1 (1)     point group:

     e(  1 -  1) =    -60.17543  eV     1   --> A              
     e(  2 -  2) =    -34.46242  eV     1   --> A              
     e(  3 -  3) =    -34.31870  eV     1   --> A              
     e(  4 -  4) =    -34.26552  eV     1   --> A              
     e(  5 -  5) =    -11.35437  eV     1   --> A              
     e(  6 -  6) =    -11.24125  eV     1   --> A              
     e(  7 -  7) =     -4.51962  eV     1   --> A              
     e(  8 -  8) =     -4.43133  eV     1   --> A              
     e(  9 -  9) =     -3.20797  eV     1   --> A              
     e( 10 - 10) =     -2.36385  eV     1   --> A              
     e( 11 - 11) =     -2.21143  eV     1   --> A              
     e( 12 - 12) =     -1.27289  eV     1   --> A              
     e( 13 - 13) =      0.45932  eV     1   --> A              
     e( 14 - 14) =      2.64383  eV     1   --> A              
     e( 15 - 15) =      3.91150  eV     1   --> A              
     e( 16 - 16) =      3.94250  eV     1   --> A              
     e( 17 - 17) =      5.27993  eV     1   --> A              

 **************************************************************************

 **************************************************************************

                    xk=(   0.61667,  -0.08660,   0.00000  )

     Band symmetry, C_1 (1)     point group:

     e(  1 -  1) =    -60.17510  eV     1   --> A              
     e(  2 -  2) =    -34.45539  eV     1   --> A              
     e(  3 -  3) =    -34.32989  eV     1   --> A              
     e(  4 -  4) =    -34.26486  eV     1   --> A              
     e(  5 -  5) =    -11.33517  eV     1   --> A              
     e(  6 -  6) =    -11.22998  eV     1   --> A              
     e(  7 -  7) =     -4.56306  eV     1   --> A              
     e(  8 -  8) =     -4.34042  eV     1   --> A              
     e(  9 -  9) =     -3.19988  eV     1   --> A              
     e( 10 - 10) =     -2.37963  eV     1   --> A              
     e( 11 - 11) =     -2.33173  eV     1   --> A              
     e( 12 - 12) =     -1.30590  eV     1   --> A              
     e( 13 - 13) =      0.49670  eV     1   --> A              
     e( 14 - 14) =      2.58364  eV     1   --> A              
     e( 15 - 15) =      3.88435  eV     1   --> A              
     e( 16 - 16) =      3.97714  eV     1   --> A              
     e( 17 - 17) =      5.34393  eV     1   --> A              

 **************************************************************************

 **************************************************************************

                    xk=(   0.62500,  -0.07216,   0.00000  )

     Band symmetry, C_1 (1)     point group:

     e(  1 -  1) =    -60.17479  eV     1   --> A              
     e(  2 -  2) =    -34.44816  eV     1   --> A              
     e(  3 -  3) =    -34.34092  eV     1   --> A              
     e(  4 -  4) =    -34.26426  eV     1   --> A              
     e(  5 -  5) =    -11.31738  eV     1   --> A              
     e(  6 -  6) =    -11.21965  eV     1   --> A              
     e(  7 -  7) =     -4.60235  eV     1   --> A              
     e(  8 -  8) =     -4.24700  eV     1   --> A              
     e(  9 -  9) =     -3.20000  eV     1   --> A              
     e( 10 - 10) =     -2.53337  eV     1   --> A              
     e( 11 - 11) =     -2.29806  eV     1   --> A              
     e( 12 - 12) =     -1.34138  eV     1   --> A              
     e( 13 - 13) =      0.53528  eV     1   --> A              
     e( 14 - 14) =      2.52424  eV     1   --> A              
     e( 15 - 15) =      3.83656  eV     1   --> A              
     e( 16 - 16) =      4.03887  eV     1   --> A              
     e( 17 - 17) =      5.40011  eV     1   --> A              

 **************************************************************************

 **************************************************************************

                    xk=(   0.63334,  -0.05773,   0.00000  )

     Band symmetry, C_1 (1)     point group:

     e(  1 -  1) =    -60.17453  eV     1   --> A              
     e(  2 -  2) =    -34.44088  eV     1   --> A              
     e(  3 -  3) =    -34.35155  eV     1   --> A              
     e(  4 -  4) =    -34.26373  eV     1   --> A              
     e(  5 -  5) =    -11.30154  eV     1   --> A              
     e(  6 -  6) =    -11.21058  eV     1   --> A              
     e(  7 -  7) =     -4.63643  eV     1   --> A              
     e(  8 -  8) =     -4.15291  eV     1   --> A              
     e(  9 -  9) =     -3.21353  eV     1   --> A              
     e( 10 - 10) =     -2.66478  eV     1   --> A              
     e( 11 - 11) =     -2.26449  eV     1   --> A              
     e( 12 - 12) =     -1.37743  eV     1   --> A              
     e( 13 - 13) =      0.57329  eV     1   --> A              
     e( 14 - 14) =      2.46838  eV     1   --> A              
     e( 15 - 15) =      3.79901  eV     1   --> A              
     e( 16 - 16) =      4.09452  eV     1   --> A              
     e( 17 - 17) =      5.44714  eV     1   --> A              

 **************************************************************************

 **************************************************************************

                    xk=(   0.64167,  -0.04330,   0.00000  )

     Band symmetry, C_1 (1)     point group:

     e(  1 -  1) =    -60.17431  eV     1   --> A              
     e(  2 -  2) =    -34.43380  eV     1   --> A              
     e(  3 -  3) =    -34.36140  eV     1   --> A              
     e(  4 -  4) =    -34.26328  eV     1   --> A              
     e(  5 -  5) =    -11.28823  eV     1   --> A              
     e(  6 -  6) =    -11.20307  eV     1   --> A              
     e(  7 -  7) =     -4.66430  eV     1   --> A              
     e(  8 -  8) =     -4.06129  eV     1   --> A              
     e(  9 -  9) =     -3.24625  eV     1   --> A              
     e( 10 - 10) =     -2.76427  eV     1   --> A              
     e( 11 - 11) =     -2.23319  eV     1   --> A              
     e( 12 - 12) =     -1.41151  eV     1   --> A              
     e( 13 - 13) =      0.60826  eV     1   --> A              
     e( 14 - 14) =      2.41921  eV     1   --> A              
     e( 15 - 15) =      3.77127  eV     1   --> A              
     e( 16 - 16) =      4.14182  eV     1   --> A              
     e( 17 - 17) =      5.48407  eV     1   --> A              

 **************************************************************************

 **************************************************************************

                    xk=(   0.65000,  -0.02886,   0.00000  )

     Band symmetry, C_1 (1)     point group:

     e(  1 -  1) =    -60.17414  eV     1   --> A              
     e(  2 -  2) =    -34.42740  eV     1   --> A              
     e(  3 -  3) =    -34.36990  eV     1   --> A              
     e(  4 -  4) =    -34.26295  eV     1   --> A              
     e(  5 -  5) =    -11.27803  eV     1   --> A              
     e(  6 -  6) =    -11.19739  eV     1   --> A              
     e(  7 -  7) =     -4.68510  eV     1   --> A              
     e(  8 -  8) =     -3.97809  eV     1   --> A              
     e(  9 -  9) =     -3.29701  eV     1   --> A              
     e( 10 - 10) =     -2.82638  eV     1   --> A              
     e( 11 - 11) =     -2.20697  eV     1   --> A              
     e( 12 - 12) =     -1.44037  eV     1   --> A              
     e( 13 - 13) =      0.63714  eV     1   --> A              
     e( 14 - 14) =      2.38020  eV     1   --> A              
     e( 15 - 15) =      3.75268  eV     1   --> A              
     e( 16 - 16) =      4.17840  eV     1   --> A              
     e( 17 - 17) =      5.51034  eV     1   --> A              

 **************************************************************************

 **************************************************************************

                    xk=(   0.65834,  -0.01443,   0.00000  )

     Band symmetry, C_1 (1)     point group:

     e(  1 -  1) =    -60.17403  eV     1   --> A              
     e(  2 -  2) =    -34.42259  eV     1   --> A              
     e(  3 -  3) =    -34.37602  eV     1   --> A              
     e(  4 -  4) =    -34.26274  eV     1   --> A              
     e(  5 -  5) =    -11.27151  eV     1   --> A              
     e(  6 -  6) =    -11.19381  eV     1   --> A              
     e(  7 -  7) =     -4.69806  eV     1   --> A              
     e(  8 -  8) =     -3.91491  eV     1   --> A              
     e(  9 -  9) =     -3.34857  eV     1   --> A              
     e( 10 - 10) =     -2.85614  eV     1   --> A              
     e( 11 - 11) =     -2.18907  eV     1   --> A              
     e( 12 - 12) =     -1.46025  eV     1   --> A              
     e( 13 - 13) =      0.65662  eV     1   --> A              
     e( 14 - 14) =      2.35478  eV     1   --> A              
     e( 15 - 15) =      3.74235  eV     1   --> A              
     e( 16 - 16) =      4.20191  eV     1   --> A              
     e( 17 - 17) =      5.52583  eV     1   --> A              

 **************************************************************************

 **************************************************************************

                    xk=(   0.66667,   0.00001,   0.00000  )

     Band symmetry, C_1 (1)     point group:

     e(  1 -  1) =    -60.17399  eV     1   --> A              
     e(  2 -  2) =    -34.42075  eV     1   --> A              
     e(  3 -  3) =    -34.37833  eV     1   --> A              
     e(  4 -  4) =    -34.26266  eV     1   --> A              
     e(  5 -  5) =    -11.26923  eV     1   --> A              
     e(  6 -  6) =    -11.19256  eV     1   --> A              
     e(  7 -  7) =     -4.70253  eV     1   --> A              
     e(  8 -  8) =     -3.89014  eV     1   --> A              
     e(  9 -  9) =     -3.37156  eV     1   --> A              
     e( 10 - 10) =     -2.86406  eV     1   --> A              
     e( 11 - 11) =     -2.18260  eV     1   --> A              
     e( 12 - 12) =     -1.46750  eV     1   --> A              
     e( 13 - 13) =      0.66365  eV     1   --> A              
     e( 14 - 14) =      2.34586  eV     1   --> A              
     e( 15 - 15) =      3.73919  eV     1   --> A              
     e( 16 - 16) =      4.21019  eV     1   --> A              
     e( 17 - 17) =      5.53080  eV     1   --> A              

 **************************************************************************

 **************************************************************************

                    xk=(   0.64445,   0.00001,   0.00000  )

     Band symmetry, C_1 (1)     point group:

     e(  1 -  1) =    -60.17406  eV     1   --> A              
     e(  2 -  2) =    -34.42360  eV     1   --> A              
     e(  3 -  3) =    -34.37460  eV     1   --> A              
     e(  4 -  4) =    -34.26280  eV     1   --> A              
     e(  5 -  5) =    -11.27367  eV     1   --> A              
     e(  6 -  6) =    -11.19484  eV     1   --> A              
     e(  7 -  7) =     -4.69436  eV     1   --> A              
     e(  8 -  8) =     -3.93156  eV     1   --> A              
     e(  9 -  9) =     -3.32922  eV     1   --> A              
     e( 10 - 10) =     -2.85390  eV     1   --> A              
     e( 11 - 11) =     -2.19471  eV     1   --> A              
     e( 12 - 12) =     -1.45358  eV     1   --> A              
     e( 13 - 13) =      0.65024  eV     1   --> A              
     e( 14 - 14) =      2.36232  eV     1   --> A              
     e( 15 - 15) =      3.74395  eV     1   --> A              
     e( 16 - 16) =      4.19462  eV     1   --> A              
     e( 17 - 17) =      5.52229  eV     1   --> A              

 **************************************************************************

 **************************************************************************

                    xk=(   0.62223,   0.00001,   0.00000  )

     Band symmetry, C_1 (1)     point group:

     e(  1 -  1) =    -60.17429  eV     1   --> A              
     e(  2 -  2) =    -34.42968  eV     1   --> A              
     e(  3 -  3) =    -34.36579  eV     1   --> A              
     e(  4 -  4) =    -34.26325  eV     1   --> A              
     e(  5 -  5) =    -11.28770  eV     1   --> A              
     e(  6 -  6) =    -11.20196  eV     1   --> A              
     e(  7 -  7) =     -4.66920  eV     1   --> A              
     e(  8 -  8) =     -4.02353  eV     1   --> A              
     e(  9 -  9) =     -3.23123  eV     1   --> A              
     e( 10 - 10) =     -2.82645  eV     1   --> A              
     e( 11 - 11) =     -2.22906  eV     1   --> A              
     e( 12 - 12) =     -1.41297  eV     1   --> A              
     e( 13 - 13) =      0.61029  eV     1   --> A              
     e( 14 - 14) =      2.41018  eV     1   --> A              
     e( 15 - 15) =      3.75583  eV     1   --> A              
     e( 16 - 16) =      4.14683  eV     1   --> A              
     e( 17 - 17) =      5.49881  eV     1   --> A              

 **************************************************************************

 **************************************************************************

                    xk=(   0.60000,   0.00001,   0.00000  )

     Band symmetry, C_1 (1)     point group:

     e(  1 -  1) =    -60.17467  eV     1   --> A              
     e(  2 -  2) =    -34.43599  eV     1   --> A              
     e(  3 -  3) =    -34.35472  eV     1   --> A              
     e(  4 -  4) =    -34.26402  eV     1   --> A              
     e(  5 -  5) =    -11.31223  eV     1   --> A              
     e(  6 -  6) =    -11.21410  eV     1   --> A              
     e(  7 -  7) =     -4.62643  eV     1   --> A              
     e(  8 -  8) =     -4.12591  eV     1   --> A              
     e(  9 -  9) =     -3.12067  eV     1   --> A              
     e( 10 - 10) =     -2.77899  eV     1   --> A              
     e( 11 - 11) =     -2.27947  eV     1   --> A              
     e( 12 - 12) =     -1.35072  eV     1   --> A              
     e( 13 - 13) =      0.54761  eV     1   --> A              
     e( 14 - 14) =      2.48328  eV     1   --> A              
     e( 15 - 15) =      3.77107  eV     1   --> A              
     e( 16 - 16) =      4.06771  eV     1   --> A              
     e( 17 - 17) =      5.46368  eV     1   --> A              

 **************************************************************************

 **************************************************************************

                    xk=(   0.57778,   0.00001,   0.00000  )

     Band symmetry, C_1 (1)     point group:

     e(  1 -  1) =    -60.17524  eV     1   --> A              
     e(  2 -  2) =    -34.44117  eV     1   --> A              
     e(  3 -  3) =    -34.34268  eV     1   --> A              
     e(  4 -  4) =    -34.26515  eV     1   --> A              
     e(  5 -  5) =    -11.34788  eV     1   --> A              
     e(  6 -  6) =    -11.23134  eV     1   --> A              
     e(  7 -  7) =     -4.56580  eV     1   --> A              
     e(  8 -  8) =     -4.22022  eV     1   --> A              
     e(  9 -  9) =     -3.02737  eV     1   --> A              
     e( 10 - 10) =     -2.70111  eV     1   --> A              
     e( 11 - 11) =     -2.33855  eV     1   --> A              
     e( 12 - 12) =     -1.27323  eV     1   --> A              
     e( 13 - 13) =      0.46879  eV     1   --> A              
     e( 14 - 14) =      2.57208  eV     1   --> A              
     e( 15 - 15) =      3.78565  eV     1   --> A              
     e( 16 - 16) =      3.96134  eV     1   --> A              
     e( 17 - 17) =      5.42067  eV     1   --> A              

 **************************************************************************

 **************************************************************************

                    xk=(   0.55556,   0.00000,   0.00000  )

     Band symmetry, C_1 (1)     point group:

     e(  1 -  1) =    -60.17598  eV     1   --> A              
     e(  2 -  2) =    -34.44458  eV     1   --> A              
     e(  3 -  3) =    -34.33019  eV     1   --> A              
     e(  4 -  4) =    -34.26664  eV     1   --> A              
     e(  5 -  5) =    -11.39500  eV     1   --> A              
     e(  6 -  6) =    -11.25357  eV     1   --> A              
     e(  7 -  7) =     -4.48740  eV     1   --> A              
     e(  8 -  8) =     -4.29892  eV     1   --> A              
     e(  9 -  9) =     -2.96606  eV     1   --> A              
     e( 10 - 10) =     -2.58740  eV     1   --> A              
     e( 11 - 11) =     -2.40010  eV     1   --> A              
     e( 12 - 12) =     -1.18593  eV     1   --> A              
     e( 13 - 13) =      0.38107  eV     1   --> A              
     e( 14 - 14) =      2.66574  eV     1   --> A              
     e( 15 - 15) =      3.79550  eV     1   --> A              
     e( 16 - 16) =      3.83452  eV     1   --> A              
     e( 17 - 17) =      5.37361  eV     1   --> A              

 **************************************************************************

 **************************************************************************

                    xk=(   0.53334,   0.00000,   0.00000  )

     Band symmetry, C_1 (1)     point group:

     e(  1 -  1) =    -60.17691  eV     1   --> A              
     e(  2 -  2) =    -34.44592  eV     1   --> A              
     e(  3 -  3) =    -34.31753  eV     1   --> A              
     e(  4 -  4) =    -34.26850  eV     1   --> A              
     e(  5 -  5) =    -11.45354  eV     1   --> A              
     e(  6 -  6) =    -11.28057  eV     1   --> A              
     e(  7 -  7) =     -4.39161  eV     1   --> A              
     e(  8 -  8) =     -4.35885  eV     1   --> A              
     e(  9 -  9) =     -2.93239  eV     1   --> A              
     e( 10 - 10) =     -2.45947  eV     1   --> A              
     e( 11 - 11) =     -2.44800  eV     1   --> A              
     e( 12 - 12) =     -1.09293  eV     1   --> A              
     e( 13 - 13) =      0.29097  eV     1   --> A              
     e( 14 - 14) =      2.75342  eV     1   --> A              
     e( 15 - 15) =      3.69620  eV     1   --> A              
     e( 16 - 16) =      3.79683  eV     1   --> A              
     e( 17 - 17) =      5.32593  eV     1   --> A              

 **************************************************************************

 **************************************************************************

                    xk=(   0.51111,   0.00000,   0.00000  )

     Band symmetry, C_1 (1)     point group:

     e(  1 -  1) =    -60.17803  eV     1   --> A              
     e(  2 -  2) =    -34.44500  eV     1   --> A              
     e(  3 -  3) =    -34.30488  eV     1   --> A              
     e(  4 -  4) =    -34.27074  eV     1   --> A              
     e(  5 -  5) =    -11.52311  eV     1   --> A              
[...]
     e( 13 - 13) =     -0.05850  eV     1   --> A              
     e( 14 - 14) =      2.63257  eV     1   --> A              
     e( 15 - 15) =      3.13561  eV     1   --> A              
     e( 16 - 16) =      3.28712  eV     1   --> A              
     e( 17 - 17) =      4.74394  eV     1   --> A              

 **************************************************************************

 **************************************************************************

                    xk=(   0.28889,   0.00000,   0.00000  )

     Band symmetry, C_1 (1)     point group:

     e(  1 -  1) =    -60.19718  eV     1   --> A              
     e(  2 -  2) =    -34.32046  eV     1   --> A              
     e(  3 -  3) =    -34.30908  eV     1   --> A              
     e(  4 -  4) =    -34.19670  eV     1   --> A              
     e(  5 -  5) =    -12.57103  eV     1   --> A              
     e(  6 -  6) =    -11.75519  eV     1   --> A              
     e(  7 -  7) =     -4.22858  eV     1   --> A              
     e(  8 -  8) =     -3.09313  eV     1   --> A              
     e(  9 -  9) =     -2.67398  eV     1   --> A              
     e( 10 - 10) =     -2.26026  eV     1   --> A              
     e( 11 - 11) =     -1.26538  eV     1   --> A              
     e( 12 - 12) =     -0.28252  eV     1   --> A              
     e( 13 - 13) =      0.00956  eV     1   --> A              
     e( 14 - 14) =      2.67066  eV     1   --> A              
     e( 15 - 15) =      3.13043  eV     1   --> A              
     e( 16 - 16) =      3.23443  eV     1   --> A              
     e( 17 - 17) =      4.63554  eV     1   --> A              

 **************************************************************************

 **************************************************************************

                    xk=(   0.26667,   0.00000,   0.00000  )

     Band symmetry, C_1 (1)     point group:

     e(  1 -  1) =    -60.19946  eV     1   --> A              
     e(  2 -  2) =    -34.31362  eV     1   --> A              
     e(  3 -  3) =    -34.30058  eV     1   --> A              
     e(  4 -  4) =    -34.18875  eV     1   --> A              
     e(  5 -  5) =    -12.67969  eV     1   --> A              
     e(  6 -  6) =    -11.80009  eV     1   --> A              
     e(  7 -  7) =     -4.26665  eV     1   --> A              
     e(  8 -  8) =     -3.02894  eV     1   --> A              
     e(  9 -  9) =     -2.54979  eV     1   --> A              
     e( 10 - 10) =     -2.10297  eV     1   --> A              
     e( 11 - 11) =     -1.30408  eV     1   --> A              
     e( 12 - 12) =     -0.25891  eV     1   --> A              
     e( 13 - 13) =      0.09488  eV     1   --> A              
     e( 14 - 14) =      2.72332  eV     1   --> A              
     e( 15 - 15) =      3.13934  eV     1   --> A              
     e( 16 - 16) =      3.19185  eV     1   --> A              
     e( 17 - 17) =      4.51805  eV     1   --> A              

 **************************************************************************

 **************************************************************************

                    xk=(   0.24445,   0.00000,   0.00000  )

     Band symmetry, C_1 (1)     point group:

     e(  1 -  1) =    -60.20168  eV     1   --> A              
     e(  2 -  2) =    -34.31808  eV     1   --> A              
     e(  3 -  3) =    -34.28051  eV     1   --> A              
     e(  4 -  4) =    -34.18142  eV     1   --> A              
     e(  5 -  5) =    -12.78378  eV     1   --> A              
     e(  6 -  6) =    -11.84308  eV     1   --> A              
     e(  7 -  7) =     -4.32429  eV     1   --> A              
     e(  8 -  8) =     -2.93878  eV     1   --> A              
     e(  9 -  9) =     -2.43297  eV     1   --> A              
     e( 10 - 10) =     -1.93195  eV     1   --> A              
     e( 11 - 11) =     -1.36247  eV     1   --> A              
     e( 12 - 12) =     -0.24648  eV     1   --> A              
     e( 13 - 13) =      0.18864  eV     1   --> A              
     e( 14 - 14) =      2.78645  eV     1   --> A              
     e( 15 - 15) =      3.16122  eV     1   --> A              
     e( 16 - 16) =      3.16501  eV     1   --> A              
     e( 17 - 17) =      4.39398  eV     1   --> A              

 **************************************************************************

 **************************************************************************

                    xk=(   0.22222,   0.00000,   0.00000  )

     Band symmetry, C_1 (1)     point group:

     e(  1 -  1) =    -60.20384  eV     1   --> A              
     e(  2 -  2) =    -34.32239  eV     1   --> A              
     e(  3 -  3) =    -34.26063  eV     1   --> A              
     e(  4 -  4) =    -34.17473  eV     1   --> A              
     e(  5 -  5) =    -12.88226  eV     1   --> A              
     e(  6 -  6) =    -11.88373  eV     1   --> A              
     e(  7 -  7) =     -4.39480  eV     1   --> A              
     e(  8 -  8) =     -2.82960  eV     1   --> A              
     e(  9 -  9) =     -2.31627  eV     1   --> A              
     e( 10 - 10) =     -1.75833  eV     1   --> A              
     e( 11 - 11) =     -1.43246  eV     1   --> A              
     e( 12 - 12) =     -0.24559  eV     1   --> A              
     e( 13 - 13) =      0.28266  eV     1   --> A              
     e( 14 - 14) =      2.85780  eV     1   --> A              
     e( 15 - 15) =      3.14401  eV     1   --> A              
     e( 16 - 16) =      3.20753  eV     1   --> A              
     e( 17 - 17) =      4.26624  eV     1   --> A              

 **************************************************************************

 **************************************************************************

                    xk=(   0.20000,   0.00000,   0.00000  )

     Band symmetry, C_1 (1)     point group:

     e(  1 -  1) =    -60.20589  eV     1   --> A              
     e(  2 -  2) =    -34.32649  eV     1   --> A              
     e(  3 -  3) =    -34.24129  eV     1   --> A              
     e(  4 -  4) =    -34.16868  eV     1   --> A              
     e(  5 -  5) =    -12.97418  eV     1   --> A              
     e(  6 -  6) =    -11.92167  eV     1   --> A              
     e(  7 -  7) =     -4.47188  eV     1   --> A              
     e(  8 -  8) =     -2.70835  eV     1   --> A              
     e(  9 -  9) =     -2.19588  eV     1   --> A              
     e( 10 - 10) =     -1.58998  eV     1   --> A              
     e( 11 - 11) =     -1.50758  eV     1   --> A              
     e( 12 - 12) =     -0.25663  eV     1   --> A              
     e( 13 - 13) =      0.37058  eV     1   --> A              
     e( 14 - 14) =      2.93730  eV     1   --> A              
     e( 15 - 15) =      3.14118  eV     1   --> A              
     e( 16 - 16) =      3.26400  eV     1   --> A              
     e( 17 - 17) =      4.13793  eV     1   --> A              

 **************************************************************************

 **************************************************************************

                    xk=(   0.17778,   0.00000,   0.00000  )

     Band symmetry, C_1 (1)     point group:

     e(  1 -  1) =    -60.20782  eV     1   --> A              
     e(  2 -  2) =    -34.33034  eV     1   --> A              
     e(  3 -  3) =    -34.22285  eV     1   --> A              
     e(  4 -  4) =    -34.16327  eV     1   --> A              
     e(  5 -  5) =    -13.05871  eV     1   --> A              
     e(  6 -  6) =    -11.95655  eV     1   --> A              
     e(  7 -  7) =     -4.55047  eV     1   --> A              
     e(  8 -  8) =     -2.58123  eV     1   --> A              
     e(  9 -  9) =     -2.07036  eV     1   --> A              
     e( 10 - 10) =     -1.58298  eV     1   --> A              
     e( 11 - 11) =     -1.43234  eV     1   --> A              
     e( 12 - 12) =     -0.28000  eV     1   --> A              
     e( 13 - 13) =      0.44814  eV     1   --> A              
     e( 14 - 14) =      3.02592  eV     1   --> A              
     e( 15 - 15) =      3.15298  eV     1   --> A              
     e( 16 - 16) =      3.32942  eV     1   --> A              
     e( 17 - 17) =      4.01226  eV     1   --> A              

 **************************************************************************

 **************************************************************************

                    xk=(   0.15556,   0.00000,   0.00000  )

     Band symmetry, C_1 (1)     point group:

     e(  1 -  1) =    -60.20958  eV     1   --> A              
     e(  2 -  2) =    -34.33387  eV     1   --> A              
     e(  3 -  3) =    -34.20564  eV     1   --> A              
     e(  4 -  4) =    -34.15850  eV     1   --> A              
     e(  5 -  5) =    -13.13508  eV     1   --> A              
     e(  6 -  6) =    -11.98807  eV     1   --> A              
     e(  7 -  7) =     -4.62667  eV     1   --> A              
     e(  8 -  8) =     -2.45369  eV     1   --> A              
     e(  9 -  9) =     -1.93965  eV     1   --> A              
     e( 10 - 10) =     -1.65509  eV     1   --> A              
     e( 11 - 11) =     -1.28933  eV     1   --> A              
     e( 12 - 12) =     -0.31608  eV     1   --> A              
     e( 13 - 13) =      0.51314  eV     1   --> A              
     e( 14 - 14) =      3.12384  eV     1   --> A              
     e( 15 - 15) =      3.17866  eV     1   --> A              
     e( 16 - 16) =      3.39825  eV     1   --> A              
     e( 17 - 17) =      3.89241  eV     1   --> A              

 **************************************************************************

 **************************************************************************

                    xk=(   0.13333,   0.00000,   0.00000  )

     Band symmetry, C_1 (1)     point group:

     e(  1 -  1) =    -60.21117  eV     1   --> A              
     e(  2 -  2) =    -34.33704  eV     1   --> A              
     e(  3 -  3) =    -34.19000  eV     1   --> A              
     e(  4 -  4) =    -34.15437  eV     1   --> A              
     e(  5 -  5) =    -13.20262  eV     1   --> A              
     e(  6 -  6) =    -12.01594  eV     1   --> A              
     e(  7 -  7) =     -4.69750  eV     1   --> A              
     e(  8 -  8) =     -2.33068  eV     1   --> A              
     e(  9 -  9) =     -1.80454  eV     1   --> A              
     e( 10 - 10) =     -1.72132  eV     1   --> A              
     e( 11 - 11) =     -1.16367  eV     1   --> A              
     e( 12 - 12) =     -0.36512  eV     1   --> A              
     e( 13 - 13) =      0.56511  eV     1   --> A              
     e( 14 - 14) =      3.21625  eV     1   --> A              
     e( 15 - 15) =      3.22921  eV     1   --> A              
     e( 16 - 16) =      3.46560  eV     1   --> A              
     e( 17 - 17) =      3.78149  eV     1   --> A              

 **************************************************************************

 **************************************************************************

                    xk=(   0.11111,   0.00000,   0.00000  )

     Band symmetry, C_1 (1)     point group:

     e(  1 -  1) =    -60.21255  eV     1   --> A              
     e(  2 -  2) =    -34.33980  eV     1   --> A              
     e(  3 -  3) =    -34.17621  eV     1   --> A              
     e(  4 -  4) =    -34.15088  eV     1   --> A              
     e(  5 -  5) =    -13.26076  eV     1   --> A              
     e(  6 -  6) =    -12.03993  eV     1   --> A              
     e(  7 -  7) =     -4.76069  eV     1   --> A              
     e(  8 -  8) =     -2.21683  eV     1   --> A              
     e(  9 -  9) =     -1.77978  eV     1   --> A              
     e( 10 - 10) =     -1.66639  eV     1   --> A              
     e( 11 - 11) =     -1.05704  eV     1   --> A              
     e( 12 - 12) =     -0.42714  eV     1   --> A              
     e( 13 - 13) =      0.60486  eV     1   --> A              
     e( 14 - 14) =      3.26238  eV     1   --> A              
     e( 15 - 15) =      3.33793  eV     1   --> A              
     e( 16 - 16) =      3.52761  eV     1   --> A              
     e( 17 - 17) =      3.68236  eV     1   --> A              

 **************************************************************************

 **************************************************************************

                    xk=(   0.08889,   0.00000,   0.00000  )

     Band symmetry, C_1 (1)     point group:

     e(  1 -  1) =    -60.21371  eV     1   --> A              
     e(  2 -  2) =    -34.34211  eV     1   --> A              
     e(  3 -  3) =    -34.16455  eV     1   --> A              
     e(  4 -  4) =    -34.14803  eV     1   --> A              
     e(  5 -  5) =    -13.30900  eV     1   --> A              
     e(  6 -  6) =    -12.05984  eV     1   --> A              
     e(  7 -  7) =     -4.81451  eV     1   --> A              
     e(  8 -  8) =     -2.11647  eV     1   --> A              
     e(  9 -  9) =     -1.82911  eV     1   --> A              
     e( 10 - 10) =     -1.52719  eV     1   --> A              
     e( 11 - 11) =     -0.97024  eV     1   --> A              
     e( 12 - 12) =     -0.50165  eV     1   --> A              
     e( 13 - 13) =      0.63395  eV     1   --> A              
     e( 14 - 14) =      3.31233  eV     1   --> A              
     e( 15 - 15) =      3.44387  eV     1   --> A              
     e( 16 - 16) =      3.58143  eV     1   --> A              
     e( 17 - 17) =      3.59759  eV     1   --> A              

 **************************************************************************

 **************************************************************************

                    xk=(   0.06667,   0.00000,   0.00000  )

     Band symmetry, C_1 (1)     point group:

     e(  1 -  1) =    -60.21463  eV     1   --> A              
     e(  2 -  2) =    -34.34395  eV     1   --> A              
     e(  3 -  3) =    -34.15523  eV     1   --> A              
     e(  4 -  4) =    -34.14582  eV     1   --> A              
     e(  5 -  5) =    -13.34694  eV     1   --> A              
     e(  6 -  6) =    -12.07550  eV     1   --> A              
     e(  7 -  7) =     -4.85765  eV     1   --> A              
     e(  8 -  8) =     -2.03357  eV     1   --> A              
     e(  9 -  9) =     -1.86834  eV     1   --> A              
     e( 10 - 10) =     -1.38972  eV     1   --> A              
     e( 11 - 11) =     -0.90340  eV     1   --> A              
     e( 12 - 12) =     -0.58724  eV     1   --> A              
     e( 13 - 13) =      0.65418  eV     1   --> A              
     e( 14 - 14) =      3.36039  eV     1   --> A              
     e( 15 - 15) =      3.52936  eV     1   --> A              
     e( 16 - 16) =      3.53946  eV     1   --> A              
     e( 17 - 17) =      3.62502  eV     1   --> A              

 **************************************************************************

 **************************************************************************

                    xk=(   0.04444,   0.00000,   0.00000  )

     Band symmetry, C_1 (1)     point group:

     e(  1 -  1) =    -60.21530  eV     1   --> A              
     e(  2 -  2) =    -34.34528  eV     1   --> A              
     e(  3 -  3) =    -34.14844  eV     1   --> A              
     e(  4 -  4) =    -34.14424  eV     1   --> A              
     e(  5 -  5) =    -13.37426  eV     1   --> A              
     e(  6 -  6) =    -12.08678  eV     1   --> A              
     e(  7 -  7) =     -4.88912  eV     1   --> A              
     e(  8 -  8) =     -1.97158  eV     1   --> A              
     e(  9 -  9) =     -1.89680  eV     1   --> A              
     e( 10 - 10) =     -1.25870  eV     1   --> A              
     e( 11 - 11) =     -0.85619  eV     1   --> A              
     e( 12 - 12) =     -0.68034  eV     1   --> A              
     e( 13 - 13) =      0.66727  eV     1   --> A              
     e( 14 - 14) =      3.40046  eV     1   --> A              
     e( 15 - 15) =      3.47941  eV     1   --> A              
     e( 16 - 16) =      3.61632  eV     1   --> A              
     e( 17 - 17) =      3.65702  eV     1   --> A              

 **************************************************************************

 **************************************************************************

                    xk=(   0.02222,   0.00000,   0.00000  )

     Band symmetry, C_1 (1)     point group:

     e(  1 -  1) =    -60.21570  eV     1   --> A              
     e(  2 -  2) =    -34.34608  eV     1   --> A              
     e(  3 -  3) =    -34.14432  eV     1   --> A              
     e(  4 -  4) =    -34.14330  eV     1   --> A              
     e(  5 -  5) =    -13.39075  eV     1   --> A              
     e(  6 -  6) =    -12.09358  eV     1   --> A              
     e(  7 -  7) =     -4.90826  eV     1   --> A              
     e(  8 -  8) =     -1.93323  eV     1   --> A              
     e(  9 -  9) =     -1.91403  eV     1   --> A              
     e( 10 - 10) =     -1.14577  eV     1   --> A              
     e( 11 - 11) =     -0.82816  eV     1   --> A              
     e( 12 - 12) =     -0.77015  eV     1   --> A              
     e( 13 - 13) =      0.67456  eV     1   --> A              
     e( 14 - 14) =      3.42698  eV     1   --> A              
     e( 15 - 15) =      3.44904  eV     1   --> A              
     e( 16 - 16) =      3.66643  eV     1   --> A              
     e( 17 - 17) =      3.67657  eV     1   --> A              

 **************************************************************************

 **************************************************************************

                    xk=(   0.00000,   0.00000,   0.00000  )

     point group C_s (m)    
     there are  2 classes
     the character table:

       E     s    
A'     1.00  1.00
A''    1.00 -1.00

     the symmetry operations in each class and the name of the first element:

     E        1
                                                                 
     s        2
                                                                 

     Band symmetry, C_s (m)     point group:

     e(  1 -  1) =    -60.21584  eV     1   --> A'             
     e(  2 -  2) =    -34.34635  eV     1   --> A'             
     e(  3 -  3) =    -34.14301  eV     1   --> A''            
     e(  4 -  4) =    -34.14291  eV     1   --> A'             
     e(  5 -  5) =    -13.39626  eV     1   --> A'             
     e(  6 -  6) =    -12.09586  eV     1   --> A'             
     e(  7 -  7) =     -4.91468  eV     1   --> A'             
     e(  8 -  8) =     -1.92045  eV     1   --> A'             
     e(  9 -  9) =     -1.91960  eV     1   --> A''            
     e( 10 - 10) =     -1.09125  eV     1   --> A'             
     e( 11 - 11) =     -0.81976  eV     1   --> A''            
     e( 12 - 12) =     -0.81602  eV     1   --> A'             
     e( 13 - 13) =      0.67689  eV     1   --> A'             
     e( 14 - 14) =      3.43541  eV     1   --> A'             
     e( 15 - 15) =      3.43971  eV     1   --> A''            
     e( 16 - 16) =      3.68263  eV     1   --> A''            
     e( 17 - 17) =      3.68439  eV     1   --> A'             

 **************************************************************************
 
     BANDS        :      3.57s CPU      4.82s WALL

 
   This run was terminated on:  18: 7:46   7May2021            

=------------------------------------------------------------------------------=
   JOB DONE.
=------------------------------------------------------------------------------=
