
     Program PWSCF v.6.7MaX starts on  7May2021 at 18: 6:11 

     This program is part of the open-source Quantum ESPRESSO suite
     for quantum simulation of materials; please cite
         "P. Giannozzi et al., J. Phys.:Condens. Matter 21 395502 (2009);
         "P. Giannozzi et al., J. Phys.:Condens. Matter 29 465901 (2017);
          URL http://www.quantum-espresso.org", 
     in publications or presentations arising from this work. More details at
     http://www.quantum-espresso.org/quote

     Parallel version (MPI), running on    10 processors

     MPI processes distributed on     1 nodes
     R & G space division:  proc/nbgrp/npool/nimage =      10
     Reading input from mos2_3_pwbands.in

     Current dimensions of program PWSCF are:
     Max number of different atomic species (ntypx) = 10
     Max number of k-points (npk) =  40000
     Max angular momentum in pseudopotentials (lmaxx) =  3

     Atomic positions and unit cell read from directory:
     ./outdir/MoS2.save/
     Atomic positions from file used, from input discarded
 

     Subspace diagonalization in iterative solution of the eigenvalue problem:
     one sub-group per band group will be used
     scalapack distributed-memory algorithm (size of sub-group:  3*  3 procs)

 
     Parallelization info
     --------------------
     sticks:   dense  smooth     PW     G-vecs:    dense   smooth      PW
     Min         159      80     23                24281     8582    1339
     Max         160      81     24                24290     8593    1348
     Sum        1597     805    235               242833    85865   13449
 


     bravais-lattice index     =            4
     lattice parameter (alat)  =       6.0156  a.u.
     unit-cell volume          =     888.3477 (a.u.)^3
     number of atoms/cell      =            3
     number of atomic types    =            2
     number of electrons       =        26.00
     number of Kohn-Sham states=           17
     kinetic-energy cutoff     =      80.0000  Ry
     charge density cutoff     =     640.0000  Ry
     Exchange-correlation=  SLA  PW   PBX  PBC
                           (   1   4   3   4   0   0   0)

     celldm(1)=   6.015630  celldm(2)=   0.000000  celldm(3)=   4.712040
     celldm(4)=   0.000000  celldm(5)=   0.000000  celldm(6)=   0.000000

     crystal axes: (cart. coord. in units of alat)
               a(1) = (   1.000000   0.000000   0.000000 )  
               a(2) = (  -0.500000   0.866025   0.000000 )  
               a(3) = (   0.000000   0.000000   4.712040 )  

     reciprocal axes: (cart. coord. in units 2 pi/alat)
               b(1) = (  1.000000  0.577350  0.000000 )  
               b(2) = (  0.000000  1.154701  0.000000 )  
               b(3) = (  0.000000  0.000000  0.212222 )  


     PseudoPot. # 1 for Mo read from file:
     /home/melsa.ducut/scratch2/all_pbe_UPF/mo_pbe_v1.uspp.F.UPF
     MD5 check sum: 30c4dcd161f5d35cd49bb5239c51a633
     Pseudo is Ultrasoft + core correction, Zval = 14.0
     Generated by new atomic code, or converted to UPF format
     Using radial grid of  889 points,  6 beta functions with: 
                l(1) =   0
                l(2) =   0
                l(3) =   1
                l(4) =   1
                l(5) =   2
                l(6) =   2
     Q(r) pseudized with  6 coefficients,  rinner =    1.000   1.000   1.000
                                                       1.000   1.000

     PseudoPot. # 2 for S  read from file:
     /home/melsa.ducut/scratch2/all_pbe_UPF/s_pbe_v1.4.uspp.F.UPF
     MD5 check sum: 88d86576ff6df21479756cfb9bdac1df
     Pseudo is Ultrasoft + core correction, Zval =  6.0
     Generated by new atomic code, or converted to UPF format
     Using radial grid of  907 points,  6 beta functions with: 
                l(1) =   0
                l(2) =   0
                l(3) =   1
                l(4) =   1
                l(5) =   2
                l(6) =   2
     Q(r) pseudized with  8 coefficients,  rinner =    1.300   1.300   1.300
                                                       1.300   1.300

     atomic species   valence    mass     pseudopotential
        Mo            14.00    95.94000     Mo( 1.00)
        S              6.00    32.06600     S ( 1.00)

     Starting magnetic structure 
     atomic species   magnetization
        Mo           0.200
        S            0.000

      2 Sym. Ops. (no inversion) found


                                    s                        frac. trans.

      isym =  1     identity                                     

 cryst.   s( 1) = (     1          0          0      )
                  (     0          1          0      )
                  (     0          0          1      )

 cart.    s( 1) = (  1.0000000  0.0000000  0.0000000 )
                  (  0.0000000  1.0000000  0.0000000 )
                  (  0.0000000  0.0000000  1.0000000 )


      isym =  2     inv. 180 deg rotation - cryst. axis [0,1,0]  

 cryst.   s( 2) = (     1          1          0      )
                  (     0         -1          0      )
                  (     0          0          1      )

 cart.    s( 2) = (  0.5000000  0.8660254  0.0000000 )
                  (  0.8660254 -0.5000000  0.0000000 )
                  (  0.0000000  0.0000000  1.0000000 )


     point group C_s (m)    
     there are  2 classes
     the character table:

       E     s    
A'     1.00  1.00
A''    1.00 -1.00

     the symmetry operations in each class and the name of the first element:

     E        1
          identity                                               
     s        2
          inv. 180 deg rotation - cryst. axis [0,1,0]            

   Cartesian axes

     site n.     atom                  positions (alat units)
         1           Mo  tau(   1) = (   0.0000000   0.0000000   2.2189174  )
         2           S   tau(   2) = (   0.5001149   0.2887416   2.7100870  )
         3           S   tau(   3) = (   0.5001149   0.2887416   1.7277482  )

   Crystallographic axes

     site n.     atom                  positions (cryst. coord.)
         1           Mo  tau(   1) = (  0.0000000  0.0000000  0.4709037  )
         2           S   tau(   2) = (  0.6668200  0.3334101  0.5751409  )
         3           S   tau(   3) = (  0.6668200  0.3334101  0.3666667  )

     number of k points=    81  Gaussian smearing, width (Ry)=  0.0100
                       cart. coord. in units 2pi/alat
        k(    1) = (   0.0000000   0.0000000   0.0000000), wk =   0.0123457
        k(    2) = (   0.0166667  -0.0096225   0.0000000), wk =   0.0123457
        k(    3) = (   0.0333333  -0.0192450   0.0000000), wk =   0.0123457
        k(    4) = (   0.0500000  -0.0288675   0.0000000), wk =   0.0123457
        k(    5) = (   0.0666667  -0.0384900   0.0000000), wk =   0.0123457
        k(    6) = (   0.0833333  -0.0481125   0.0000000), wk =   0.0123457
        k(    7) = (   0.1000000  -0.0577350   0.0000000), wk =   0.0123457
        k(    8) = (   0.1166667  -0.0673575   0.0000000), wk =   0.0123457
        k(    9) = (   0.1333333  -0.0769800   0.0000000), wk =   0.0123457
        k(   10) = (   0.1500000  -0.0866025   0.0000000), wk =   0.0123457
        k(   11) = (   0.1666667  -0.0962250   0.0000000), wk =   0.0123457
        k(   12) = (   0.1833333  -0.1058475   0.0000000), wk =   0.0123457
        k(   13) = (   0.2000000  -0.1154701   0.0000000), wk =   0.0123457
        k(   14) = (   0.2166667  -0.1250926   0.0000000), wk =   0.0123457
        k(   15) = (   0.2333333  -0.1347151   0.0000000), wk =   0.0123457
        k(   16) = (   0.2500000  -0.1443376   0.0000000), wk =   0.0123457
        k(   17) = (   0.2666667  -0.1539601   0.0000000), wk =   0.0123457
        k(   18) = (   0.2833333  -0.1635826   0.0000000), wk =   0.0123457
        k(   19) = (   0.3000000  -0.1732051   0.0000000), wk =   0.0123457
        k(   20) = (   0.3166667  -0.1828276   0.0000000), wk =   0.0123457
        k(   21) = (   0.3333333  -0.1924501   0.0000000), wk =   0.0123457
        k(   22) = (   0.3500000  -0.2020726   0.0000000), wk =   0.0123457
        k(   23) = (   0.3666667  -0.2116951   0.0000000), wk =   0.0123457
        k(   24) = (   0.3833333  -0.2213176   0.0000000), wk =   0.0123457
        k(   25) = (   0.4000000  -0.2309401   0.0000000), wk =   0.0123457
        k(   26) = (   0.4166667  -0.2405626   0.0000000), wk =   0.0123457
        k(   27) = (   0.4333333  -0.2501851   0.0000000), wk =   0.0123457
        k(   28) = (   0.4500000  -0.2598076   0.0000000), wk =   0.0123457
        k(   29) = (   0.4666667  -0.2694301   0.0000000), wk =   0.0123457
        k(   30) = (   0.4833333  -0.2790526   0.0000000), wk =   0.0123457
        k(   31) = (   0.5000000  -0.2886751   0.0000000), wk =   0.0123457
        k(   32) = (   0.5083335  -0.2742411   0.0000000), wk =   0.0123457
        k(   33) = (   0.5166670  -0.2598070   0.0000000), wk =   0.0123457
        k(   34) = (   0.5250005  -0.2453730   0.0000000), wk =   0.0123457
        k(   35) = (   0.5333340  -0.2309390   0.0000000), wk =   0.0123457
        k(   36) = (   0.5416675  -0.2165049   0.0000000), wk =   0.0123457
        k(   37) = (   0.5500010  -0.2020709   0.0000000), wk =   0.0123457
        k(   38) = (   0.5583345  -0.1876368   0.0000000), wk =   0.0123457
        k(   39) = (   0.5666680  -0.1732028   0.0000000), wk =   0.0123457
        k(   40) = (   0.5750015  -0.1587687   0.0000000), wk =   0.0123457
        k(   41) = (   0.5833350  -0.1443347   0.0000000), wk =   0.0123457
        k(   42) = (   0.5916685  -0.1299006   0.0000000), wk =   0.0123457
        k(   43) = (   0.6000020  -0.1154666   0.0000000), wk =   0.0123457
        k(   44) = (   0.6083355  -0.1010325   0.0000000), wk =   0.0123457
        k(   45) = (   0.6166690  -0.0865985   0.0000000), wk =   0.0123457
        k(   46) = (   0.6250025  -0.0721645   0.0000000), wk =   0.0123457
        k(   47) = (   0.6333360  -0.0577304   0.0000000), wk =   0.0123457
        k(   48) = (   0.6416695  -0.0432964   0.0000000), wk =   0.0123457
        k(   49) = (   0.6500030  -0.0288623   0.0000000), wk =   0.0123457
        k(   50) = (   0.6583365  -0.0144283   0.0000000), wk =   0.0123457
        k(   51) = (   0.6666700   0.0000058   0.0000000), wk =   0.0123457
        k(   52) = (   0.6444477   0.0000056   0.0000000), wk =   0.0123457
        k(   53) = (   0.6222253   0.0000054   0.0000000), wk =   0.0123457
        k(   54) = (   0.6000030   0.0000052   0.0000000), wk =   0.0123457
        k(   55) = (   0.5777807   0.0000050   0.0000000), wk =   0.0123457
        k(   56) = (   0.5555583   0.0000048   0.0000000), wk =   0.0123457
        k(   57) = (   0.5333360   0.0000046   0.0000000), wk =   0.0123457
        k(   58) = (   0.5111137   0.0000044   0.0000000), wk =   0.0123457
        k(   59) = (   0.4888913   0.0000042   0.0000000), wk =   0.0123457
        k(   60) = (   0.4666690   0.0000040   0.0000000), wk =   0.0123457
        k(   61) = (   0.4444467   0.0000038   0.0000000), wk =   0.0123457
        k(   62) = (   0.4222243   0.0000037   0.0000000), wk =   0.0123457
        k(   63) = (   0.4000020   0.0000035   0.0000000), wk =   0.0123457
        k(   64) = (   0.3777797   0.0000033   0.0000000), wk =   0.0123457
        k(   65) = (   0.3555573   0.0000031   0.0000000), wk =   0.0123457
        k(   66) = (   0.3333350   0.0000029   0.0000000), wk =   0.0123457
        k(   67) = (   0.3111127   0.0000027   0.0000000), wk =   0.0123457
        k(   68) = (   0.2888903   0.0000025   0.0000000), wk =   0.0123457
        k(   69) = (   0.2666680   0.0000023   0.0000000), wk =   0.0123457
        k(   70) = (   0.2444457   0.0000021   0.0000000), wk =   0.0123457
        k(   71) = (   0.2222233   0.0000019   0.0000000), wk =   0.0123457
        k(   72) = (   0.2000010   0.0000017   0.0000000), wk =   0.0123457
        k(   73) = (   0.1777787   0.0000015   0.0000000), wk =   0.0123457
        k(   74) = (   0.1555563   0.0000013   0.0000000), wk =   0.0123457
        k(   75) = (   0.1333340   0.0000012   0.0000000), wk =   0.0123457
        k(   76) = (   0.1111117   0.0000010   0.0000000), wk =   0.0123457
        k(   77) = (   0.0888893   0.0000008   0.0000000), wk =   0.0123457
        k(   78) = (   0.0666670   0.0000006   0.0000000), wk =   0.0123457
        k(   79) = (   0.0444447   0.0000004   0.0000000), wk =   0.0123457
        k(   80) = (   0.0222223   0.0000002   0.0000000), wk =   0.0123457
        k(   81) = (   0.0000000   0.0000000   0.0000000), wk =   0.0123457

                       cryst. coord.
        k(    1) = (   0.0000000   0.0000000   0.0000000), wk =   0.0123457
        k(    2) = (   0.0166667  -0.0166667   0.0000000), wk =   0.0123457
        k(    3) = (   0.0333333  -0.0333333   0.0000000), wk =   0.0123457
        k(    4) = (   0.0500000  -0.0500000   0.0000000), wk =   0.0123457
        k(    5) = (   0.0666667  -0.0666667   0.0000000), wk =   0.0123457
        k(    6) = (   0.0833333  -0.0833333   0.0000000), wk =   0.0123457
        k(    7) = (   0.1000000  -0.1000000   0.0000000), wk =   0.0123457
        k(    8) = (   0.1166667  -0.1166667   0.0000000), wk =   0.0123457
        k(    9) = (   0.1333333  -0.1333333   0.0000000), wk =   0.0123457
        k(   10) = (   0.1500000  -0.1500000   0.0000000), wk =   0.0123457
        k(   11) = (   0.1666667  -0.1666667   0.0000000), wk =   0.0123457
        k(   12) = (   0.1833333  -0.1833333   0.0000000), wk =   0.0123457
        k(   13) = (   0.2000000  -0.2000000   0.0000000), wk =   0.0123457
        k(   14) = (   0.2166667  -0.2166667   0.0000000), wk =   0.0123457
        k(   15) = (   0.2333333  -0.2333333   0.0000000), wk =   0.0123457
        k(   16) = (   0.2500000  -0.2500000   0.0000000), wk =   0.0123457
        k(   17) = (   0.2666667  -0.2666667   0.0000000), wk =   0.0123457
        k(   18) = (   0.2833333  -0.2833333   0.0000000), wk =   0.0123457
        k(   19) = (   0.3000000  -0.3000000   0.0000000), wk =   0.0123457
        k(   20) = (   0.3166667  -0.3166667   0.0000000), wk =   0.0123457
        k(   21) = (   0.3333333  -0.3333333   0.0000000), wk =   0.0123457
        k(   22) = (   0.3500000  -0.3500000   0.0000000), wk =   0.0123457
        k(   23) = (   0.3666667  -0.3666667   0.0000000), wk =   0.0123457
        k(   24) = (   0.3833333  -0.3833333   0.0000000), wk =   0.0123457
        k(   25) = (   0.4000000  -0.4000000   0.0000000), wk =   0.0123457
        k(   26) = (   0.4166667  -0.4166667   0.0000000), wk =   0.0123457
        k(   27) = (   0.4333333  -0.4333333   0.0000000), wk =   0.0123457
        k(   28) = (   0.4500000  -0.4500000   0.0000000), wk =   0.0123457
        k(   29) = (   0.4666667  -0.4666667   0.0000000), wk =   0.0123457
        k(   30) = (   0.4833333  -0.4833333   0.0000000), wk =   0.0123457
        k(   31) = (   0.5000000  -0.5000000   0.0000000), wk =   0.0123457
        k(   32) = (   0.5083335  -0.4916665   0.0000000), wk =   0.0123457
        k(   33) = (   0.5166670  -0.4833330   0.0000000), wk =   0.0123457
        k(   34) = (   0.5250005  -0.4749995   0.0000000), wk =   0.0123457
        k(   35) = (   0.5333340  -0.4666660   0.0000000), wk =   0.0123457
        k(   36) = (   0.5416675  -0.4583325   0.0000000), wk =   0.0123457
        k(   37) = (   0.5500010  -0.4499990   0.0000000), wk =   0.0123457
        k(   38) = (   0.5583345  -0.4416655   0.0000000), wk =   0.0123457
        k(   39) = (   0.5666680  -0.4333320   0.0000000), wk =   0.0123457
        k(   40) = (   0.5750015  -0.4249985   0.0000000), wk =   0.0123457
        k(   41) = (   0.5833350  -0.4166650   0.0000000), wk =   0.0123457
        k(   42) = (   0.5916685  -0.4083315   0.0000000), wk =   0.0123457
        k(   43) = (   0.6000020  -0.3999980   0.0000000), wk =   0.0123457
        k(   44) = (   0.6083355  -0.3916645   0.0000000), wk =   0.0123457
        k(   45) = (   0.6166690  -0.3833310   0.0000000), wk =   0.0123457
        k(   46) = (   0.6250025  -0.3749975   0.0000000), wk =   0.0123457
        k(   47) = (   0.6333360  -0.3666640   0.0000000), wk =   0.0123457
        k(   48) = (   0.6416695  -0.3583305   0.0000000), wk =   0.0123457
        k(   49) = (   0.6500030  -0.3499970   0.0000000), wk =   0.0123457
        k(   50) = (   0.6583365  -0.3416635   0.0000000), wk =   0.0123457
        k(   51) = (   0.6666700  -0.3333300   0.0000000), wk =   0.0123457
        k(   52) = (   0.6444477  -0.3222190   0.0000000), wk =   0.0123457
        k(   53) = (   0.6222253  -0.3111080   0.0000000), wk =   0.0123457
        k(   54) = (   0.6000030  -0.2999970   0.0000000), wk =   0.0123457
        k(   55) = (   0.5777807  -0.2888860   0.0000000), wk =   0.0123457
        k(   56) = (   0.5555583  -0.2777750   0.0000000), wk =   0.0123457
        k(   57) = (   0.5333360  -0.2666640   0.0000000), wk =   0.0123457
        k(   58) = (   0.5111137  -0.2555530   0.0000000), wk =   0.0123457
        k(   59) = (   0.4888913  -0.2444420   0.0000000), wk =   0.0123457
        k(   60) = (   0.4666690  -0.2333310   0.0000000), wk =   0.0123457
        k(   61) = (   0.4444467  -0.2222200   0.0000000), wk =   0.0123457
        k(   62) = (   0.4222243  -0.2111090   0.0000000), wk =   0.0123457
        k(   63) = (   0.4000020  -0.1999980   0.0000000), wk =   0.0123457
        k(   64) = (   0.3777797  -0.1888870   0.0000000), wk =   0.0123457
        k(   65) = (   0.3555573  -0.1777760   0.0000000), wk =   0.0123457
        k(   66) = (   0.3333350  -0.1666650   0.0000000), wk =   0.0123457
        k(   67) = (   0.3111127  -0.1555540   0.0000000), wk =   0.0123457
        k(   68) = (   0.2888903  -0.1444430   0.0000000), wk =   0.0123457
        k(   69) = (   0.2666680  -0.1333320   0.0000000), wk =   0.0123457
        k(   70) = (   0.2444457  -0.1222210   0.0000000), wk =   0.0123457
        k(   71) = (   0.2222233  -0.1111100   0.0000000), wk =   0.0123457
        k(   72) = (   0.2000010  -0.0999990   0.0000000), wk =   0.0123457
        k(   73) = (   0.1777787  -0.0888880   0.0000000), wk =   0.0123457
        k(   74) = (   0.1555563  -0.0777770   0.0000000), wk =   0.0123457
        k(   75) = (   0.1333340  -0.0666660   0.0000000), wk =   0.0123457
        k(   76) = (   0.1111117  -0.0555550   0.0000000), wk =   0.0123457
        k(   77) = (   0.0888893  -0.0444440   0.0000000), wk =   0.0123457
        k(   78) = (   0.0666670  -0.0333330   0.0000000), wk =   0.0123457
        k(   79) = (   0.0444447  -0.0222220   0.0000000), wk =   0.0123457
        k(   80) = (   0.0222223  -0.0111110   0.0000000), wk =   0.0123457
        k(   81) = (   0.0000000   0.0000000   0.0000000), wk =   0.0123457

     Dense  grid:   242833 G-vectors     FFT dimensions: (  50,  50, 240)

     Smooth grid:    85865 G-vectors     FFT dimensions: (  36,  36, 162)

     Dynamical RAM for                 wfc:       0.28 MB

     Dynamical RAM for     wfc (w. buffer):      45.37 MB

     Dynamical RAM for           str. fact:       0.74 MB

     Dynamical RAM for           local pot:       0.00 MB

     Dynamical RAM for          nlocal pot:       0.88 MB

     Dynamical RAM for                qrad:       4.06 MB

     Dynamical RAM for          rho,v,vnew:       4.97 MB

     Dynamical RAM for           G-vectors:       1.46 MB

     Dynamical RAM for          h,s,v(r/c):       0.01 MB

     Dynamical RAM for          <psi|beta>:       0.01 MB

     Dynamical RAM for                 psi:       0.56 MB

     Dynamical RAM for                hpsi:       0.56 MB

     Dynamical RAM for                spsi:       0.56 MB

     Dynamical RAM for      wfcinit/wfcrot:       0.70 MB

     Dynamical RAM for           addusdens:      70.05 MB

     Estimated static dynamical RAM per process >      61.34 MB

     Estimated max dynamical RAM per process >     131.39 MB

     Estimated total dynamical RAM >       1.28 GB
     Generating pointlists ...
     new r_m :   0.3127 (alat units)  1.8808 (a.u.) for type    1
     new r_m :   0.3127 (alat units)  1.8808 (a.u.) for type    2

     The potential is recalculated from file :
     ./outdir/MoS2.save/charge-density


     negative rho (up, down):  5.015E-05 5.015E-05
     Starting wfcs are   21 randomized atomic wfcs

     Band Structure Calculation
     Davidson diagonalization with overlap

     Computing kpt #:     1  of   162
     total cpu time spent up to now is        1.5 secs

     Computing kpt #:     2  of   162
     total cpu time spent up to now is        2.0 secs

     Computing kpt #:     3  of   162
     total cpu time spent up to now is        2.4 secs

     Computing kpt #:     4  of   162
     total cpu time spent up to now is        2.9 secs

     Computing kpt #:     5  of   162
     total cpu time spent up to now is        3.3 secs

     Computing kpt #:     6  of   162
     total cpu time spent up to now is        3.8 secs

     Computing kpt #:     7  of   162
     total cpu time spent up to now is        4.2 secs

     Computing kpt #:     8  of   162
     total cpu time spent up to now is        4.7 secs

     Computing kpt #:     9  of   162
     total cpu time spent up to now is        5.2 secs

     Computing kpt #:    10  of   162
     total cpu time spent up to now is        5.6 secs

     Computing kpt #:    11  of   162
     total cpu time spent up to now is        6.1 secs

     Computing kpt #:    12  of   162
     total cpu time spent up to now is        6.5 secs

     Computing kpt #:    13  of   162
     total cpu time spent up to now is        7.0 secs

     Computing kpt #:    14  of   162
     total cpu time spent up to now is        7.4 secs

     Computing kpt #:    15  of   162
     total cpu time spent up to now is        7.9 secs

     Computing kpt #:    16  of   162
     total cpu time spent up to now is        8.3 secs

     Computing kpt #:    17  of   162
     total cpu time spent up to now is        8.8 secs

     Computing kpt #:    18  of   162
     total cpu time spent up to now is        9.2 secs

     Computing kpt #:    19  of   162
     total cpu time spent up to now is        9.7 secs

     Computing kpt #:    20  of   162
     total cpu time spent up to now is       10.1 secs

     Computing kpt #:    21  of   162
     total cpu time spent up to now is       10.6 secs

     Computing kpt #:    22  of   162
     total cpu time spent up to now is       11.0 secs

     Computing kpt #:    23  of   162
     total cpu time spent up to now is       11.5 secs

     Computing kpt #:    24  of   162
     total cpu time spent up to now is       12.0 secs

     Computing kpt #:    25  of   162
     total cpu time spent up to now is       12.4 secs

     Computing kpt #:    26  of   162
     total cpu time spent up to now is       12.9 secs

     Computing kpt #:    27  of   162
     total cpu time spent up to now is       13.4 secs

     Computing kpt #:    28  of   162
     total cpu time spent up to now is       13.8 secs

     Computing kpt #:    29  of   162
     total cpu time spent up to now is       14.3 secs

     Computing kpt #:    30  of   162
     total cpu time spent up to now is       14.8 secs

     Computing kpt #:    31  of   162
     total cpu time spent up to now is       15.3 secs

     Computing kpt #:    32  of   162
     total cpu time spent up to now is       15.8 secs

     Computing kpt #:    33  of   162
     total cpu time spent up to now is       16.2 secs

     Computing kpt #:    34  of   162
     total cpu time spent up to now is       16.7 secs

     Computing kpt #:    35  of   162
     total cpu time spent up to now is       17.2 secs

     Computing kpt #:    36  of   162
     total cpu time spent up to now is       17.7 secs

     Computing kpt #:    37  of   162
     total cpu time spent up to now is       18.1 secs

     Computing kpt #:    38  of   162
     total cpu time spent up to now is       18.6 secs

     Computing kpt #:    39  of   162
     total cpu time spent up to now is       19.1 secs

     Computing kpt #:    40  of   162
     total cpu time spent up to now is       19.6 secs

     Computing kpt #:    41  of   162
     total cpu time spent up to now is       20.1 secs

     Computing kpt #:    42  of   162
     total cpu time spent up to now is       20.5 secs

     Computing kpt #:    43  of   162
     total cpu time spent up to now is       21.0 secs

     Computing kpt #:    44  of   162
     total cpu time spent up to now is       21.5 secs

     Computing kpt #:    45  of   162
     total cpu time spent up to now is       22.0 secs

     Computing kpt #:    46  of   162
     total cpu time spent up to now is       22.4 secs

     Computing kpt #:    47  of   162
     total cpu time spent up to now is       22.9 secs

     Computing kpt #:    48  of   162
     total cpu time spent up to now is       23.4 secs

     Computing kpt #:    49  of   162
     total cpu time spent up to now is       23.8 secs

     Computing kpt #:    50  of   162
     total cpu time spent up to now is       24.3 secs

     Computing kpt #:    51  of   162
     total cpu time spent up to now is       24.7 secs

     Computing kpt #:    52  of   162
     total cpu time spent up to now is       25.2 secs

     Computing kpt #:    53  of   162
     total cpu time spent up to now is       25.6 secs

     Computing kpt #:    54  of   162
     total cpu time spent up to now is       26.1 secs

     Computing kpt #:    55  of   162
     total cpu time spent up to now is       26.6 secs

     Computing kpt #:    56  of   162
     total cpu time spent up to now is       27.0 secs

     Computing kpt #:    57  of   162
     total cpu time spent up to now is       27.5 secs

     Computing kpt #:    58  of   162
     total cpu time spent up to now is       28.0 secs

     Computing kpt #:    59  of   162
     total cpu time spent up to now is       28.4 secs

     Computing kpt #:    60  of   162
     total cpu time spent up to now is       28.9 secs

     Computing kpt #:    61  of   162
     total cpu time spent up to now is       29.3 secs

     Computing kpt #:    62  of   162
     total cpu time spent up to now is       29.8 secs

     Computing kpt #:    63  of   162
     total cpu time spent up to now is       30.2 secs

     Computing kpt #:    64  of   162
     total cpu time spent up to now is       30.7 secs

     Computing kpt #:    65  of   162
     total cpu time spent up to now is       31.1 secs

     Computing kpt #:    66  of   162
     total cpu time spent up to now is       31.6 secs

     Computing kpt #:    67  of   162
     total cpu time spent up to now is       32.0 secs

     Computing kpt #:    68  of   162
     total cpu time spent up to now is       32.5 secs

     Computing kpt #:    69  of   162
     total cpu time spent up to now is       32.9 secs

     Computing kpt #:    70  of   162
     total cpu time spent up to now is       33.4 secs

     Computing kpt #:    71  of   162
     total cpu time spent up to now is       33.8 secs

     Computing kpt #:    72  of   162
     total cpu time spent up to now is       34.3 secs

     Computing kpt #:    73  of   162
     total cpu time spent up to now is       34.7 secs

     Computing kpt #:    74  of   162
     total cpu time spent up to now is       35.2 secs

     Computing kpt #:    75  of   162
     total cpu time spent up to now is       35.6 secs

     Computing kpt #:    76  of   162
     total cpu time spent up to now is       36.1 secs

     Computing kpt #:    77  of   162
     total cpu time spent up to now is       36.6 secs

     Computing kpt #:    78  of   162
     total cpu time spent up to now is       37.0 secs

     Computing kpt #:    79  of   162
     total cpu time spent up to now is       37.5 secs

     Computing kpt #:    80  of   162
     total cpu time spent up to now is       37.9 secs

     Computing kpt #:    81  of   162
     total cpu time spent up to now is       38.3 secs

     Computing kpt #:    82  of   162
     total cpu time spent up to now is       38.8 secs

     Computing kpt #:    83  of   162
     total cpu time spent up to now is       39.2 secs

     Computing kpt #:    84  of   162
     total cpu time spent up to now is       39.7 secs

     Computing kpt #:    85  of   162
     total cpu time spent up to now is       40.1 secs

     Computing kpt #:    86  of   162
     total cpu time spent up to now is       40.6 secs

     Computing kpt #:    87  of   162
     total cpu time spent up to now is       41.0 secs

     Computing kpt #:    88  of   162
     total cpu time spent up to now is       41.5 secs

     Computing kpt #:    89  of   162
     total cpu time spent up to now is       41.9 secs

     Computing kpt #:    90  of   162
     total cpu time spent up to now is       42.4 secs

     Computing kpt #:    91  of   162
     total cpu time spent up to now is       42.8 secs

     Computing kpt #:    92  of   162
     total cpu time spent up to now is       43.3 secs

     Computing kpt #:    93  of   162
     total cpu time spent up to now is       43.7 secs

     Computing kpt #:    94  of   162
     total cpu time spent up to now is       44.2 secs

     Computing kpt #:    95  of   162
     total cpu time spent up to now is       44.6 secs

     Computing kpt #:    96  of   162
     total cpu time spent up to now is       45.1 secs

     Computing kpt #:    97  of   162
     total cpu time spent up to now is       45.5 secs

     Computing kpt #:    98  of   162
     total cpu time spent up to now is       46.0 secs

     Computing kpt #:    99  of   162
     total cpu time spent up to now is       46.4 secs

     Computing kpt #:   100  of   162
     total cpu time spent up to now is       46.9 secs

     Computing kpt #:   101  of   162
     total cpu time spent up to now is       47.3 secs

     Computing kpt #:   102  of   162
     total cpu time spent up to now is       47.8 secs

     Computing kpt #:   103  of   162
     total cpu time spent up to now is       48.3 secs

     Computing kpt #:   104  of   162
     total cpu time spent up to now is       48.7 secs

     Computing kpt #:   105  of   162
     total cpu time spent up to now is       49.2 secs

     Computing kpt #:   106  of   162
     total cpu time spent up to now is       49.6 secs

     Computing kpt #:   107  of   162
     total cpu time spent up to now is       50.1 secs

     Computing kpt #:   108  of   162
     total cpu time spent up to now is       50.6 secs

     Computing kpt #:   109  of   162
     total cpu time spent up to now is       51.0 secs

     Computing kpt #:   110  of   162
     total cpu time spent up to now is       51.5 secs

     Computing kpt #:   111  of   162
     total cpu time spent up to now is       52.0 secs

     Computing kpt #:   112  of   162
     total cpu time spent up to now is       52.4 secs

     Computing kpt #:   113  of   162
     total cpu time spent up to now is       52.9 secs

     Computing kpt #:   114  of   162
     total cpu time spent up to now is       53.4 secs

     Computing kpt #:   115  of   162
     total cpu time spent up to now is       53.9 secs

     Computing kpt #:   116  of   162
     total cpu time spent up to now is       54.3 secs

     Computing kpt #:   117  of   162
     total cpu time spent up to now is       54.8 secs

     Computing kpt #:   118  of   162
     total cpu time spent up to now is       55.3 secs

     Computing kpt #:   119  of   162
     total cpu time spent up to now is       55.8 secs

     Computing kpt #:   120  of   162
     total cpu time spent up to now is       56.3 secs

     Computing kpt #:   121  of   162
     total cpu time spent up to now is       56.7 secs

     Computing kpt #:   122  of   162
     total cpu time spent up to now is       57.2 secs

     Computing kpt #:   123  of   162
     total cpu time spent up to now is       57.7 secs

     Computing kpt #:   124  of   162
     total cpu time spent up to now is       58.1 secs

     Computing kpt #:   125  of   162
     total cpu time spent up to now is       58.6 secs

     Computing kpt #:   126  of   162
     total cpu time spent up to now is       59.1 secs

     Computing kpt #:   127  of   162
     total cpu time spent up to now is       59.6 secs

     Computing kpt #:   128  of   162
     total cpu time spent up to now is       60.0 secs

     Computing kpt #:   129  of   162
     total cpu time spent up to now is       60.5 secs

     Computing kpt #:   130  of   162
     total cpu time spent up to now is       60.9 secs

     Computing kpt #:   131  of   162
     total cpu time spent up to now is       61.4 secs

     Computing kpt #:   132  of   162
     total cpu time spent up to now is       61.8 secs

     Computing kpt #:   133  of   162
     total cpu time spent up to now is       62.3 secs

     Computing kpt #:   134  of   162
     total cpu time spent up to now is       62.8 secs

     Computing kpt #:   135  of   162
     total cpu time spent up to now is       63.2 secs

     Computing kpt #:   136  of   162
     total cpu time spent up to now is       63.7 secs

     Computing kpt #:   137  of   162
     total cpu time spent up to now is       64.1 secs

     Computing kpt #:   138  of   162
     total cpu time spent up to now is       64.6 secs

     Computing kpt #:   139  of   162
     total cpu time spent up to now is       65.1 secs

     Computing kpt #:   140  of   162
     total cpu time spent up to now is       65.5 secs

     Computing kpt #:   141  of   162
     total cpu time spent up to now is       66.0 secs

     Computing kpt #:   142  of   162
     total cpu time spent up to now is       66.4 secs

     Computing kpt #:   143  of   162
     total cpu time spent up to now is       66.9 secs

     Computing kpt #:   144  of   162
     total cpu time spent up to now is       67.4 secs

     Computing kpt #:   145  of   162
     total cpu time spent up to now is       67.8 secs

     Computing kpt #:   146  of   162
     total cpu time spent up to now is       68.3 secs

     Computing kpt #:   147  of   162
     total cpu time spent up to now is       68.7 secs

     Computing kpt #:   148  of   162
     total cpu time spent up to now is       69.2 secs

     Computing kpt #:   149  of   162
     total cpu time spent up to now is       69.6 secs

     Computing kpt #:   150  of   162
     total cpu time spent up to now is       70.1 secs

     Computing kpt #:   151  of   162
     total cpu time spent up to now is       70.5 secs

     Computing kpt #:   152  of   162
     total cpu time spent up to now is       71.0 secs

     Computing kpt #:   153  of   162
     total cpu time spent up to now is       71.4 secs

     Computing kpt #:   154  of   162
     total cpu time spent up to now is       71.9 secs

     Computing kpt #:   155  of   162
     total cpu time spent up to now is       72.3 secs

     Computing kpt #:   156  of   162
     total cpu time spent up to now is       72.8 secs

     Computing kpt #:   157  of   162
     total cpu time spent up to now is       73.2 secs

     Computing kpt #:   158  of   162
     total cpu time spent up to now is       73.7 secs

     Computing kpt #:   159  of   162
     total cpu time spent up to now is       74.1 secs

     Computing kpt #:   160  of   162
     total cpu time spent up to now is       74.6 secs

     Computing kpt #:   161  of   162
     total cpu time spent up to now is       75.0 secs

     Computing kpt #:   162  of   162
     total cpu time spent up to now is       75.4 secs

     ethr =  3.85E-12,  avg # of iterations = 33.2

     total cpu time spent up to now is       75.4 secs

     End of band structure calculation

 ------ SPIN UP ------------


          k = 0.0000 0.0000 0.0000 ( 10755 PWs)   bands (ev):

   -60.2158 -34.3464 -34.1430 -34.1429 -13.3963 -12.0959  -4.9147  -1.9205
    -1.9196  -1.0912  -0.8198  -0.8160   0.6769   3.4354   3.4397   3.6826
     3.6844

          k = 0.0167-0.0096 0.0000 ( 10757 PWs)   bands (ev):

   -60.2157 -34.3462 -34.1440 -34.1432 -13.3921 -12.0942  -4.9099  -1.9296
    -1.9159  -1.1338  -0.8240  -0.7820   0.6751   3.4313   3.4444   3.6699
     3.6791

          k = 0.0333-0.0192 0.0000 ( 10749 PWs)   bands (ev):

   -60.2154 -34.3455 -34.1471 -34.1439 -13.3797 -12.0890  -4.8955  -1.9585
    -1.9029  -1.2265  -0.8445  -0.7072   0.6697   3.4114   3.4670   3.6317
     3.6645

          k = 0.0500-0.0289 0.0000 ( 10777 PWs)   bands (ev):

   -60.2149 -34.3445 -34.1523 -34.1450 -13.3592 -12.0806  -4.8717  -2.0056
    -1.8815  -1.3372  -0.8781  -0.6268   0.6602   3.3808   3.5040   3.5718
     3.6406

          k = 0.0667-0.0385 0.0000 ( 10777 PWs)   bands (ev):

   -60.2142 -34.3432 -34.1594 -34.1467 -13.3306 -12.0688  -4.8390  -2.0694
    -1.8516  -1.4559  -0.9236  -0.5521   0.6457   3.3439   3.4950   3.5540
     3.6084

          k = 0.0833-0.0481 0.0000 ( 10779 PWs)   bands (ev):

   -60.2134 -34.3414 -34.1684 -34.1487 -13.2942 -12.0538  -4.7979  -2.1479
    -1.8137  -1.5790  -0.9796  -0.4879   0.6252   3.3054   3.4067   3.5686
     3.6153

          k = 0.1000-0.0577 0.0000 ( 10783 PWs)   bands (ev):

   -60.2123 -34.3393 -34.1791 -34.1512 -13.2501 -12.0356  -4.7492  -2.2388
    -1.7680  -1.7049  -1.0445  -0.4374   0.5975   3.2707   3.3126   3.5224
     3.6862

          k = 0.1167-0.0674 0.0000 ( 10781 PWs)   bands (ev):

   -60.2111 -34.3369 -34.1915 -34.1540 -13.1987 -12.0144  -4.6939  -2.3395
    -1.8327  -1.7149  -1.1169  -0.4024   0.5612   3.2179   3.2445   3.4712
     3.7645

          k = 0.1333-0.0770 0.0000 ( 10777 PWs)   bands (ev):

   -60.2097 -34.3341 -34.2054 -34.1572 -13.1403 -11.9903  -4.6333  -2.4472
    -1.9619  -1.6549  -1.1950  -0.3842   0.5153   3.1277   3.2310   3.4162
     3.8484

          k = 0.1500-0.0866 0.0000 ( 10797 PWs)   bands (ev):

   -60.2082 -34.3311 -34.2207 -34.1607 -13.0752 -11.9635  -4.5693  -2.5590
    -2.0920  -1.5886  -1.2774  -0.3830   0.4589   3.0460   3.2329   3.3587
     3.9360

          k = 0.1667-0.0962 0.0000 ( 10791 PWs)   bands (ev):

   -60.2066 -34.3278 -34.2371 -34.1644 -13.0040 -11.9342  -4.5041  -2.6718
    -2.2228  -1.5166  -1.3627  -0.3981   0.3920   2.9763   3.2520   3.3002
     4.0254

          k = 0.1833-0.1058 0.0000 ( 10769 PWs)   bands (ev):

   -60.2048 -34.3244 -34.2545 -34.1684 -12.9270 -11.9026  -4.4408  -2.7821
    -2.3540  -1.4497  -1.4396  -0.4278   0.3154   2.9207   3.2418   3.2884
     4.1149

          k = 0.2000-0.1155 0.0000 ( 10765 PWs)   bands (ev):

   -60.2030 -34.3208 -34.2727 -34.1726 -12.8450 -11.8690  -4.3831  -2.8862
    -2.4854  -1.5370  -1.3585  -0.4698   0.2310   2.8805   3.1848   3.3411
     4.2033

          k = 0.2167-0.1251 0.0000 ( 10763 PWs)   bands (ev):

   -60.2011 -34.3170 -34.2915 -34.1770 -12.7584 -11.8336  -4.3357  -2.9797
    -2.6166  -1.6239  -1.2741  -0.5213   0.1417   2.8558   3.1304   3.4082
     4.2892

          k = 0.2333-0.1347 0.0000 ( 10765 PWs)   bands (ev):

   -60.1992 -34.3132 -34.3106 -34.1814 -12.6681 -11.7967  -4.3038  -3.0585
    -2.7473  -1.7093  -1.1876  -0.5793   0.0511   2.8459   3.0795   3.4875
     4.3715

          k = 0.2500-0.1443 0.0000 ( 10769 PWs)   bands (ev):

   -60.1973 -34.3299 -34.3093 -34.1858 -12.5747 -11.7587  -4.2924  -3.1190
    -2.8768  -1.7925  -1.0998  -0.6413  -0.0363   2.8496   3.0331   3.5761
     4.4495

          k = 0.2667-0.1540 0.0000 ( 10763 PWs)   bands (ev):

   -60.1953 -34.3491 -34.3054 -34.1903 -12.4790 -11.7200  -4.3042  -3.1600
    -3.0046  -1.8727  -1.0119  -0.7047  -0.1161   2.8652   2.9920   3.6712
     4.5226

          k = 0.2833-0.1636 0.0000 ( 10749 PWs)   bands (ev):

   -60.1934 -34.3681 -34.3015 -34.1947 -12.3820 -11.6809  -4.3388  -3.1838
    -3.1298  -1.9495  -0.9251  -0.7675  -0.1840   2.8912   2.9567   3.7702
     4.5902

          k = 0.3000-0.1732 0.0000 ( 10747 PWs)   bands (ev):

   -60.1915 -34.3866 -34.2978 -34.1990 -12.2847 -11.6419  -4.3926  -3.2516
    -3.1956  -2.0223  -0.8405  -0.8282  -0.2360   2.9256   2.9278   3.8702
     4.6521

          k = 0.3167-0.1828 0.0000 ( 10731 PWs)   bands (ev):

   -60.1897 -34.4044 -34.2941 -34.2032 -12.1882 -11.6034  -4.4604  -3.3690
    -3.2017  -2.0907  -0.8854  -0.7593  -0.2694   2.9053   2.9673   3.9688
     4.7081

          k = 0.3333-0.1925 0.0000 ( 10735 PWs)   bands (ev):

   -60.1880 -34.4213 -34.2906 -34.2072 -12.0935 -11.5659  -4.5366  -3.4809
    -3.2077  -2.1542  -0.9384  -0.6824  -0.2829   2.8894   3.0143   4.0637
     4.7583

          k = 0.3500-0.2021 0.0000 ( 10733 PWs)   bands (ev):

   -60.1863 -34.4372 -34.2874 -34.2109 -12.0020 -11.5299  -4.6167  -3.5864
    -3.2172  -2.2125  -0.9866  -0.6109  -0.2765   2.8798   3.0653   4.1528
     4.8027

          k = 0.3667-0.2117 0.0000 ( 10735 PWs)   bands (ev):

   -60.1848 -34.4520 -34.2843 -34.2143 -11.9149 -11.4960  -4.6969  -3.6844
    -3.2319  -2.2654  -1.0297  -0.5455  -0.2525   2.8758   3.1189   4.2344
     4.8416

          k = 0.3833-0.2213 0.0000 ( 10757 PWs)   bands (ev):

   -60.1834 -34.4653 -34.2815 -34.2175 -11.8337 -11.4645  -4.7742  -3.7737
    -3.2513  -2.3126  -1.0675  -0.4871  -0.2142   2.8767   3.1737   4.3072
     4.8751

          k = 0.4000-0.2309 0.0000 ( 10731 PWs)   bands (ev):

   -60.1822 -34.4772 -34.2791 -34.2203 -11.7595 -11.4361  -4.8460  -3.8534
    -3.2741  -2.3538  -1.0999  -0.4359  -0.1662   2.8813   3.2282   4.3702
     4.9034

          k = 0.4167-0.2406 0.0000 ( 10718 PWs)   bands (ev):

   -60.1812 -34.4874 -34.2770 -34.2227 -11.6939 -11.4111  -4.9105  -3.9226
    -3.2982  -2.3890  -1.1271  -0.3924  -0.1137   2.8885   3.2804   4.4230
     4.9269

          k = 0.4333-0.2502 0.0000 ( 10706 PWs)   bands (ev):

   -60.1803 -34.4960 -34.2752 -34.2247 -11.6382 -11.3900  -4.9657  -3.9804
    -3.3215  -2.4180  -1.1491  -0.3568  -0.0618   2.8969   3.3284   4.4656
     4.9457

          k = 0.4500-0.2598 0.0000 ( 10700 PWs)   bands (ev):

   -60.1796 -34.5027 -34.2738 -34.2263 -11.5934 -11.3731  -5.0103  -4.0261
    -3.3418  -2.4407  -1.1660  -0.3291  -0.0156   2.9051   3.3697   4.4981
     4.9601

          k = 0.4667-0.2694 0.0000 ( 10710 PWs)   bands (ev):

   -60.1791 -34.5076 -34.2728 -34.2274 -11.5606 -11.3609  -5.0431  -4.0592
    -3.3576  -2.4569  -1.1780  -0.3094   0.0208   2.9119   3.4017   4.5209
     4.9702

          k = 0.4833-0.2791 0.0000 ( 10718 PWs)   bands (ev):

   -60.1788 -34.5105 -34.2721 -34.2281 -11.5407 -11.3534  -5.0631  -4.0792
    -3.3675  -2.4667  -1.1852  -0.2976   0.0440   2.9164   3.4221   4.5344
     4.9763

          k = 0.5000-0.2887 0.0000 ( 10718 PWs)   bands (ev):

   -60.1787 -34.5115 -34.2719 -34.2284 -11.5339 -11.3509  -5.0698  -4.0859
    -3.3709  -2.4700  -1.1876  -0.2936   0.0519   2.9180   3.4291   4.5388
     4.9783

          k = 0.5083-0.2742 0.0000 ( 10726 PWs)   bands (ev):

   -60.1786 -34.5112 -34.2719 -34.2290 -11.5326 -11.3501  -5.0657  -4.0892
    -3.3695  -2.4708  -1.1866  -0.3245   0.0686   2.9196   3.4304   4.5445
     4.9654

          k = 0.5167-0.2598 0.0000 ( 10720 PWs)   bands (ev):

   -60.1785 -34.5102 -34.2717 -34.2309 -11.5285 -11.3475  -5.0534  -4.0990
    -3.3651  -2.4732  -1.1838  -0.4042   0.1062   2.9239   3.4347   4.5612
     4.9282

          k = 0.5250-0.2454 0.0000 ( 10722 PWs)   bands (ev):

   -60.1784 -34.5087 -34.2715 -34.2341 -11.5217 -11.3433  -5.0330  -4.1153
    -3.3581  -2.4764  -1.1798  -0.5146   0.1485   2.9293   3.4429   4.5871
     4.8713

          k = 0.5333-0.2309 0.0000 ( 10704 PWs)   bands (ev):

   -60.1783 -34.5065 -34.2711 -34.2385 -11.5125 -11.3375  -5.0046  -4.1378
    -3.3484  -2.4795  -1.1755  -0.6461   0.1881   2.9333   3.4566   4.6162
     4.8044

          k = 0.5417-0.2165 0.0000 ( 10726 PWs)   bands (ev):

   -60.1780 -34.5037 -34.2707 -34.2440 -11.5008 -11.3303  -4.9684  -4.1663
    -3.3364  -2.4813  -1.1719  -0.7934   0.2231   2.9329   3.4777   4.6203
     4.7598

          k = 0.5500-0.2021 0.0000 ( 10698 PWs)   bands (ev):

   -60.1778 -34.5004 -34.2702 -34.2507 -11.4869 -11.3217  -4.9245  -4.2004
    -3.3223  -2.4809  -1.1701  -0.9532   0.2540   2.9257   3.5074   4.5582
     4.7822

          k = 0.5583-0.1876 0.0000 ( 10696 PWs)   bands (ev):

   -60.1775 -34.4964 -34.2696 -34.2583 -11.4711 -11.3119  -4.8732  -4.2393
    -3.3066  -2.4772  -1.1711  -1.1229   0.2819   2.9097   3.5464   4.4654
     4.8389

          k = 0.5667-0.1732 0.0000 ( 10694 PWs)   bands (ev):

   -60.1772 -34.4920 -34.2690 -34.2668 -11.4537 -11.3012  -4.8149  -4.2822
    -3.2896  -2.4694  -1.2999  -1.1759   0.3084   2.8843   3.5943   4.3663
     4.9075

          k = 0.5750-0.1588 0.0000 ( 10690 PWs)   bands (ev):

   -60.1768 -34.4870 -34.2761 -34.2683 -11.4349 -11.2897  -4.7498  -4.3283
    -3.2719  -2.4572  -1.4819  -1.1853   0.3347   2.8498   3.6498   4.2683
     4.9818

          k = 0.5833-0.1443 0.0000 ( 10694 PWs)   bands (ev):

   -60.1765 -34.4815 -34.2861 -34.2676 -11.4152 -11.2777  -4.6784  -4.3763
    -3.2540  -2.4404  -1.6666  -1.1996   0.3623   2.8071   3.7112   4.1750
     5.0585

          k = 0.5917-0.1299 0.0000 ( 10710 PWs)   bands (ev):

   -60.1761 -34.4755 -34.2967 -34.2669 -11.3949 -11.2654  -4.6011  -4.4250
    -3.2367  -2.4189  -1.8515  -1.2191   0.3919   2.7575   3.7766   4.0886
     5.1352

          k = 0.6000-0.1155 0.0000 ( 10702 PWs)   bands (ev):

   -60.1758 -34.4692 -34.3076 -34.2662 -11.3744 -11.2532  -4.5185  -4.4732
    -3.2209  -2.3932  -2.0341  -1.2437   0.4242   2.7024   3.8440   4.0108
     5.2097

          k = 0.6083-0.1010 0.0000 ( 10698 PWs)   bands (ev):

   -60.1754 -34.4624 -34.3187 -34.2655 -11.3544 -11.2412  -4.5196  -4.4313
    -3.2080  -2.3638  -2.2114  -1.2729   0.4593   2.6438   3.9115   3.9425
     5.2799

          k = 0.6167-0.0866 0.0000 ( 10678 PWs)   bands (ev):

   -60.1751 -34.4554 -34.3299 -34.2649 -11.3352 -11.2300  -4.5631  -4.3404
    -3.1999  -2.3796  -2.3317  -1.3059   0.4967   2.5836   3.8844   3.9771
     5.3439

          k = 0.6250-0.0722 0.0000 ( 10678 PWs)   bands (ev):

   -60.1748 -34.4482 -34.3409 -34.2643 -11.3174 -11.2197  -4.6024  -4.2470
    -3.2000  -2.5334  -2.2981  -1.3414   0.5353   2.5242   3.8366   4.0389
     5.4001

          k = 0.6333-0.0577 0.0000 ( 10692 PWs)   bands (ev):

   -60.1745 -34.4409 -34.3515 -34.2637 -11.3015 -11.2106  -4.6364  -4.1529
    -3.2135  -2.6648  -2.2645  -1.3774   0.5733   2.4684   3.7990   4.0945
     5.4471

          k = 0.6417-0.0433 0.0000 ( 10690 PWs)   bands (ev):

   -60.1743 -34.4338 -34.3614 -34.2633 -11.2882 -11.2031  -4.6643  -4.0613
    -3.2462  -2.7643  -2.2332  -1.4115   0.6083   2.4192   3.7713   4.1418
     5.4841

          k = 0.6500-0.0289 0.0000 ( 10698 PWs)   bands (ev):

   -60.1741 -34.4274 -34.3699 -34.2629 -11.2780 -11.1974  -4.6851  -3.9781
    -3.2970  -2.8264  -2.2070  -1.4404   0.6371   2.3802   3.7527   4.1784
     5.5103

          k = 0.6583-0.0144 0.0000 ( 10692 PWs)   bands (ev):

   -60.1740 -34.4226 -34.3760 -34.2627 -11.2715 -11.1938  -4.6981  -3.9149
    -3.3486  -2.8561  -2.1891  -1.4603   0.6566   2.3548   3.7423   4.2019
     5.5258

          k = 0.6667 0.0000 0.0000 ( 10704 PWs)   bands (ev):

   -60.1740 -34.4207 -34.3783 -34.2627 -11.2692 -11.1926  -4.7025  -3.8901
    -3.3716  -2.8641  -2.1826  -1.4675   0.6637   2.3459   3.7392   4.2102
     5.5308

          k = 0.6444 0.0000 0.0000 ( 10700 PWs)   bands (ev):

   -60.1741 -34.4236 -34.3746 -34.2628 -11.2737 -11.1948  -4.6944  -3.9316
    -3.3292  -2.8539  -2.1947  -1.4536   0.6502   2.3623   3.7439   4.1946
     5.5223

          k = 0.6222 0.0000 0.0000 ( 10700 PWs)   bands (ev):

   -60.1743 -34.4297 -34.3658 -34.2632 -11.2877 -11.2020  -4.6692  -4.0235
    -3.2312  -2.8264  -2.2291  -1.4130   0.6103   2.4102   3.7558   4.1468
     5.4988

          k = 0.6000 0.0000 0.0000 ( 10700 PWs)   bands (ev):

   -60.1747 -34.4360 -34.3547 -34.2640 -11.3122 -11.2141  -4.6264  -4.1259
    -3.1207  -2.7790  -2.2795  -1.3507   0.5476   2.4833   3.7711   4.0677
     5.4637

          k = 0.5778 0.0000 0.0000 ( 10686 PWs)   bands (ev):

   -60.1752 -34.4412 -34.3427 -34.2651 -11.3479 -11.2313  -4.5658  -4.2202
    -3.0274  -2.7011  -2.3386  -1.2732   0.4688   2.5721   3.7856   3.9613
     5.4207

          k = 0.5556 0.0000 0.0000 ( 10707 PWs)   bands (ev):

   -60.1760 -34.4446 -34.3302 -34.2666 -11.3950 -11.2536  -4.4874  -4.2989
    -2.9661  -2.5874  -2.4001  -1.1859   0.3811   2.6657   3.7955   3.8345
     5.3736

          k = 0.5333 0.0000 0.0000 ( 10715 PWs)   bands (ev):

   -60.1769 -34.4459 -34.3175 -34.2685 -11.4535 -11.2806  -4.3916  -4.3589
    -2.9324  -2.4595  -2.4480  -1.0929   0.2910   2.7534   3.6962   3.7968
     5.3259

          k = 0.5111 0.0000 0.0000 ( 10711 PWs)   bands (ev):

   -60.1780 -34.4450 -34.3049 -34.2707 -11.5231 -11.3120  -4.3989  -4.2791
    -2.9177  -2.5132  -2.2959  -0.9973   0.2038   2.8242   3.5574   3.7866
     5.2801

          k = 0.4889 0.0000 0.0000 ( 10701 PWs)   bands (ev):

   -60.1793 -34.4417 -34.2923 -34.2733 -11.6030 -11.3475  -4.4194  -4.1509
    -2.9176  -2.5587  -2.1393  -0.9015   0.1235   2.8664   3.4320   3.7631
     5.2371

          k = 0.4667 0.0000 0.0000 ( 10717 PWs)   bands (ev):

   -60.1808 -34.4361 -34.2800 -34.2763 -11.6922 -11.3864  -4.4213  -4.0082
    -2.9303  -2.5940  -1.9828  -0.8074   0.0527   2.8682   3.3356   3.7261
     5.1962

          k = 0.4444 0.0000 0.0000 ( 10737 PWs)   bands (ev):

   -60.1825 -34.4282 -34.2796 -34.2680 -11.7894 -11.4283  -4.4067  -3.8526
    -2.9547  -2.6173  -1.8301  -0.7168  -0.0074   2.8277   3.2759   3.6768
     5.1551

          k = 0.4222 0.0000 0.0000 ( 10735 PWs)   bands (ev):

   -60.1843 -34.4180 -34.2832 -34.2564 -11.8933 -11.4725  -4.3783  -3.6859
    -2.9890  -2.6271  -1.6846  -0.6312  -0.0561   2.7628   3.2420   3.6177
     5.1107

          k = 0.4000 0.0000 0.0000 ( 10739 PWs)   bands (ev):

   -60.1862 -34.4058 -34.2871 -34.2451 -12.0023 -11.5186  -4.3399  -3.5108
    -3.0298  -2.6217  -1.5505  -0.5518  -0.0928   2.6970   3.2178   3.5521
     5.0596

          k = 0.3778 0.0000 0.0000 ( 10737 PWs)   bands (ev):

   -60.1883 -34.3916 -34.2912 -34.2344 -12.1149 -11.5658  -4.2969  -3.3305
    -3.0720  -2.5992  -1.4335  -0.4798  -0.1155   2.6462   3.1949   3.4831
     4.9988

          k = 0.3556 0.0000 0.0000 ( 10743 PWs)   bands (ev):

   -60.1904 -34.3757 -34.2955 -34.2241 -12.2295 -11.6136  -4.2561  -3.1496
    -3.1083  -2.5565  -1.3407  -0.4161  -0.1204   2.6177   3.1719   3.4140
     4.9263

          k = 0.3333 0.0000 0.0000 ( 10759 PWs)   bands (ev):

   -60.1926 -34.3583 -34.3000 -34.2144 -12.3446 -11.6614  -4.2260  -3.1296
    -2.9748  -2.4892  -1.2798  -0.3616  -0.1025   2.6137   3.1509   3.3478
     4.8413

          k = 0.3111 0.0000 0.0000 ( 10773 PWs)   bands (ev):

   -60.1949 -34.3398 -34.3045 -34.2053 -12.4589 -11.7088  -4.2150  -3.1266
    -2.8145  -2.3913  -1.2551  -0.3169  -0.0585   2.6326   3.1356   3.2871
     4.7439

          k = 0.2889 0.0000 0.0000 ( 10775 PWs)   bands (ev):

   -60.1972 -34.3205 -34.3091 -34.1967 -12.5710 -11.7552  -4.2286  -3.0931
    -2.6740  -2.2603  -1.2654  -0.2825   0.0096   2.6707   3.1304   3.2344
     4.6355

          k = 0.2667 0.0000 0.0000 ( 10753 PWs)   bands (ev):

   -60.1995 -34.3136 -34.3006 -34.1887 -12.6797 -11.8001  -4.2666  -3.0289
    -2.5498  -2.1030  -1.3041  -0.2589   0.0949   2.7233   3.1393   3.1919
     4.5180

          k = 0.2444 0.0000 0.0000 ( 10765 PWs)   bands (ev):

   -60.2017 -34.3181 -34.2805 -34.1814 -12.7838 -11.8431  -4.3243  -2.9388
    -2.4330  -1.9319  -1.3625  -0.2465   0.1886   2.7864   3.1612   3.1650
     4.3940

          k = 0.2222 0.0000 0.0000 ( 10765 PWs)   bands (ev):

   -60.2038 -34.3224 -34.2606 -34.1747 -12.8823 -11.8837  -4.3948  -2.8296
    -2.3163  -1.7583  -1.4325  -0.2456   0.2827   2.8578   3.1440   3.2075
     4.2662

          k = 0.2000 0.0000 0.0000 ( 10777 PWs)   bands (ev):

   -60.2059 -34.3265 -34.2413 -34.1687 -12.9742 -11.9217  -4.4719  -2.7084
    -2.1959  -1.5900  -1.5076  -0.2566   0.3706   2.9373   3.1412   3.2640
     4.1379

          k = 0.1778 0.0000 0.0000 ( 10765 PWs)   bands (ev):

   -60.2078 -34.3303 -34.2229 -34.1633 -13.0587 -11.9566  -4.5505  -2.5812
    -2.0704  -1.5830  -1.4323  -0.2800   0.4481   3.0259   3.1530   3.3294
     4.0123

          k = 0.1556 0.0000 0.0000 ( 10763 PWs)   bands (ev):

   -60.2096 -34.3339 -34.2056 -34.1585 -13.1351 -11.9881  -4.6267  -2.4537
    -1.9397  -1.6551  -1.2893  -0.3161   0.5131   3.1238   3.1787   3.3982
     3.8924

          k = 0.1333 0.0000 0.0000 ( 10765 PWs)   bands (ev):

   -60.2112 -34.3370 -34.1900 -34.1544 -13.2026 -12.0159  -4.6975  -2.3307
    -1.8045  -1.7213  -1.1637  -0.3651   0.5651   3.2162   3.2292   3.4656
     3.7815

          k = 0.1111 0.0000 0.0000 ( 10763 PWs)   bands (ev):

   -60.2126 -34.3398 -34.1762 -34.1509 -13.2608 -12.0399  -4.7607  -2.2168
    -1.7798  -1.6664  -1.0570  -0.4271   0.6049   3.2624   3.3379   3.5276
     3.6824

          k = 0.0889 0.0000 0.0000 ( 10769 PWs)   bands (ev):

   -60.2137 -34.3421 -34.1646 -34.1480 -13.3090 -12.0598  -4.8145  -2.1165
    -1.8291  -1.5272  -0.9702  -0.5016   0.6339   3.3123   3.4439   3.5814
     3.5976

          k = 0.0667 0.0000 0.0000 ( 10765 PWs)   bands (ev):

   -60.2146 -34.3439 -34.1552 -34.1458 -13.3469 -12.0755  -4.8576  -2.0336
    -1.8683  -1.3897  -0.9034  -0.5872   0.6542   3.3604   3.5294   3.5395
     3.6250

          k = 0.0444 0.0000 0.0000 ( 10749 PWs)   bands (ev):

   -60.2153 -34.3453 -34.1484 -34.1442 -13.3743 -12.0868  -4.8891  -1.9716
    -1.8968  -1.2587  -0.8562  -0.6803   0.6673   3.4005   3.4794   3.6163
     3.6570

          k = 0.0222 0.0000 0.0000 ( 10755 PWs)   bands (ev):

   -60.2157 -34.3461 -34.1443 -34.1433 -13.3907 -12.0936  -4.9083  -1.9332
    -1.9140  -1.1458  -0.8282  -0.7702   0.6746   3.4270   3.4490   3.6664
     3.6766

          k = 0.0000 0.0000 0.0000 ( 10755 PWs)   bands (ev):

   -60.2158 -34.3464 -34.1430 -34.1429 -13.3963 -12.0959  -4.9147  -1.9205
    -1.9196  -1.0912  -0.8198  -0.8160   0.6769   3.4354   3.4397   3.6826
     3.6844

 ------ SPIN DOWN ----------


          k = 0.0000 0.0000 0.0000 ( 10755 PWs)   bands (ev):

   -60.2158 -34.3463 -34.1430 -34.1429 -13.3963 -12.0959  -4.9147  -1.9205
    -1.9196  -1.0912  -0.8198  -0.8160   0.6769   3.4354   3.4397   3.6826
     3.6844

          k = 0.0167-0.0096 0.0000 ( 10757 PWs)   bands (ev):

   -60.2157 -34.3461 -34.1440 -34.1432 -13.3921 -12.0942  -4.9099  -1.9296
    -1.9159  -1.1338  -0.8240  -0.7820   0.6751   3.4313   3.4444   3.6699
     3.6791

          k = 0.0333-0.0192 0.0000 ( 10749 PWs)   bands (ev):

   -60.2154 -34.3455 -34.1471 -34.1439 -13.3798 -12.0891  -4.8955  -1.9585
    -1.9029  -1.2265  -0.8445  -0.7072   0.6697   3.4114   3.4670   3.6317
     3.6645

          k = 0.0500-0.0289 0.0000 ( 10777 PWs)   bands (ev):

   -60.2149 -34.3445 -34.1523 -34.1450 -13.3592 -12.0806  -4.8717  -2.0056
    -1.8815  -1.3372  -0.8781  -0.6268   0.6602   3.3808   3.5040   3.5718
     3.6406

          k = 0.0667-0.0385 0.0000 ( 10777 PWs)   bands (ev):

   -60.2142 -34.3432 -34.1594 -34.1467 -13.3306 -12.0688  -4.8390  -2.0694
    -1.8516  -1.4559  -0.9236  -0.5521   0.6457   3.3439   3.4950   3.5540
     3.6084

          k = 0.0833-0.0481 0.0000 ( 10779 PWs)   bands (ev):

   -60.2134 -34.3414 -34.1683 -34.1487 -13.2942 -12.0538  -4.7979  -2.1479
    -1.8137  -1.5790  -0.9796  -0.4879   0.6252   3.3054   3.4067   3.5686
     3.6153

          k = 0.1000-0.0577 0.0000 ( 10783 PWs)   bands (ev):

   -60.2123 -34.3393 -34.1791 -34.1512 -13.2501 -12.0356  -4.7492  -2.2388
    -1.7680  -1.7049  -1.0445  -0.4374   0.5975   3.2707   3.3126   3.5224
     3.6862

          k = 0.1167-0.0674 0.0000 ( 10781 PWs)   bands (ev):

   -60.2111 -34.3368 -34.1915 -34.1540 -13.1987 -12.0144  -4.6939  -2.3395
    -1.8327  -1.7149  -1.1169  -0.4024   0.5612   3.2179   3.2445   3.4712
     3.7645

          k = 0.1333-0.0770 0.0000 ( 10777 PWs)   bands (ev):

   -60.2097 -34.3341 -34.2054 -34.1572 -13.1403 -11.9903  -4.6333  -2.4472
    -1.9619  -1.6549  -1.1950  -0.3842   0.5153   3.1277   3.2310   3.4162
     3.8484

          k = 0.1500-0.0866 0.0000 ( 10797 PWs)   bands (ev):

   -60.2082 -34.3311 -34.2207 -34.1607 -13.0752 -11.9635  -4.5693  -2.5590
    -2.0920  -1.5886  -1.2774  -0.3830   0.4589   3.0460   3.2329   3.3587
     3.9360

          k = 0.1667-0.0962 0.0000 ( 10791 PWs)   bands (ev):

   -60.2066 -34.3278 -34.2371 -34.1644 -13.0040 -11.9342  -4.5041  -2.6718
    -2.2228  -1.5166  -1.3627  -0.3981   0.3920   2.9763   3.2520   3.3002
     4.0254

          k = 0.1833-0.1058 0.0000 ( 10769 PWs)   bands (ev):

   -60.2048 -34.3244 -34.2545 -34.1684 -12.9270 -11.9026  -4.4408  -2.7821
    -2.3540  -1.4497  -1.4396  -0.4278   0.3154   2.9207   3.2418   3.2884
     4.1149

          k = 0.2000-0.1155 0.0000 ( 10765 PWs)   bands (ev):

   -60.2030 -34.3207 -34.2727 -34.1726 -12.8450 -11.8690  -4.3831  -2.8862
    -2.4854  -1.5370  -1.3585  -0.4698   0.2310   2.8805   3.1848   3.3411
     4.2033

          k = 0.2167-0.1251 0.0000 ( 10763 PWs)   bands (ev):

   -60.2011 -34.3170 -34.2915 -34.1769 -12.7585 -11.8336  -4.3357  -2.9798
    -2.6166  -1.6239  -1.2741  -0.5213   0.1417   2.8558   3.1304   3.4082
     4.2892

          k = 0.2333-0.1347 0.0000 ( 10765 PWs)   bands (ev):

   -60.1992 -34.3132 -34.3106 -34.1814 -12.6681 -11.7967  -4.3038  -3.0585
    -2.7473  -1.7093  -1.1876  -0.5793   0.0511   2.8459   3.0795   3.4875
     4.3715

          k = 0.2500-0.1443 0.0000 ( 10769 PWs)   bands (ev):

   -60.1973 -34.3299 -34.3093 -34.1858 -12.5747 -11.7587  -4.2924  -3.1190
    -2.8768  -1.7924  -1.0998  -0.6413  -0.0363   2.8496   3.0331   3.5761
     4.4495

          k = 0.2667-0.1540 0.0000 ( 10763 PWs)   bands (ev):

   -60.1953 -34.3491 -34.3054 -34.1903 -12.4790 -11.7200  -4.3042  -3.1601
    -3.0046  -1.8727  -1.0119  -0.7047  -0.1161   2.8652   2.9920   3.6712
     4.5226

          k = 0.2833-0.1636 0.0000 ( 10749 PWs)   bands (ev):

   -60.1934 -34.3681 -34.3015 -34.1947 -12.3820 -11.6809  -4.3388  -3.1838
    -3.1298  -1.9495  -0.9251  -0.7675  -0.1840   2.8912   2.9567   3.7702
     4.5902

          k = 0.3000-0.1732 0.0000 ( 10747 PWs)   bands (ev):

   -60.1915 -34.3865 -34.2978 -34.1990 -12.2847 -11.6419  -4.3926  -3.2516
    -3.1956  -2.0223  -0.8405  -0.8282  -0.2360   2.9256   2.9278   3.8702
     4.6521

          k = 0.3167-0.1828 0.0000 ( 10731 PWs)   bands (ev):

   -60.1897 -34.4044 -34.2941 -34.2032 -12.1882 -11.6034  -4.4604  -3.3690
    -3.2017  -2.0907  -0.8854  -0.7593  -0.2694   2.9053   2.9673   3.9688
     4.7081

          k = 0.3333-0.1925 0.0000 ( 10735 PWs)   bands (ev):

   -60.1880 -34.4213 -34.2906 -34.2071 -12.0935 -11.5659  -4.5366  -3.4809
    -3.2077  -2.1542  -0.9384  -0.6824  -0.2829   2.8894   3.0143   4.0637
     4.7583

          k = 0.3500-0.2021 0.0000 ( 10733 PWs)   bands (ev):

   -60.1863 -34.4372 -34.2873 -34.2109 -12.0020 -11.5299  -4.6167  -3.5864
    -3.2172  -2.2125  -0.9866  -0.6109  -0.2765   2.8798   3.0653   4.1528
     4.8027

          k = 0.3667-0.2117 0.0000 ( 10735 PWs)   bands (ev):

   -60.1848 -34.4519 -34.2843 -34.2143 -11.9150 -11.4960  -4.6969  -3.6844
    -3.2319  -2.2654  -1.0297  -0.5455  -0.2525   2.8758   3.1189   4.2344
     4.8416

          k = 0.3833-0.2213 0.0000 ( 10757 PWs)   bands (ev):

   -60.1834 -34.4653 -34.2815 -34.2175 -11.8337 -11.4645  -4.7742  -3.7737
    -3.2513  -2.3126  -1.0675  -0.4871  -0.2142   2.8767   3.1737   4.3072
     4.8751

          k = 0.4000-0.2309 0.0000 ( 10731 PWs)   bands (ev):

   -60.1822 -34.4772 -34.2791 -34.2203 -11.7595 -11.4361  -4.8460  -3.8534
    -3.2741  -2.3538  -1.0999  -0.4359  -0.1662   2.8814   3.2282   4.3702
     4.9034

          k = 0.4167-0.2406 0.0000 ( 10718 PWs)   bands (ev):

   -60.1811 -34.4874 -34.2769 -34.2227 -11.6939 -11.4111  -4.9105  -3.9226
    -3.2982  -2.3890  -1.1271  -0.3924  -0.1137   2.8885   3.2804   4.4230
     4.9269

          k = 0.4333-0.2502 0.0000 ( 10706 PWs)   bands (ev):

   -60.1803 -34.4960 -34.2752 -34.2247 -11.6382 -11.3900  -4.9657  -3.9804
    -3.3215  -2.4180  -1.1491  -0.3568  -0.0618   2.8969   3.3284   4.4656
     4.9457

          k = 0.4500-0.2598 0.0000 ( 10700 PWs)   bands (ev):

   -60.1796 -34.5027 -34.2738 -34.2263 -11.5934 -11.3732  -5.0103  -4.0261
    -3.3418  -2.4407  -1.1660  -0.3291  -0.0156   2.9051   3.3697   4.4981
     4.9601

          k = 0.4667-0.2694 0.0000 ( 10710 PWs)   bands (ev):

   -60.1791 -34.5075 -34.2727 -34.2274 -11.5606 -11.3609  -5.0431  -4.0592
    -3.3576  -2.4569  -1.1780  -0.3094   0.0208   2.9119   3.4017   4.5209
     4.9702

          k = 0.4833-0.2791 0.0000 ( 10718 PWs)   bands (ev):

   -60.1787 -34.5105 -34.2721 -34.2281 -11.5407 -11.3534  -5.0631  -4.0792
    -3.3675  -2.4667  -1.1852  -0.2976   0.0440   2.9164   3.4221   4.5344
     4.9763

          k = 0.5000-0.2887 0.0000 ( 10718 PWs)   bands (ev):

   -60.1786 -34.5115 -34.2719 -34.2284 -11.5339 -11.3509  -5.0698  -4.0859
    -3.3709  -2.4700  -1.1876  -0.2936   0.0519   2.9180   3.4291   4.5388
     4.9783

          k = 0.5083-0.2742 0.0000 ( 10726 PWs)   bands (ev):

   -60.1786 -34.5111 -34.2719 -34.2290 -11.5326 -11.3501  -5.0657  -4.0892
    -3.3695  -2.4708  -1.1866  -0.3245   0.0686   2.9196   3.4304   4.5445
     4.9654

          k = 0.5167-0.2598 0.0000 ( 10720 PWs)   bands (ev):

   -60.1785 -34.5102 -34.2717 -34.2309 -11.5285 -11.3475  -5.0534  -4.0990
    -3.3651  -2.4732  -1.1838  -0.4042   0.1062   2.9239   3.4347   4.5612
     4.9282

          k = 0.5250-0.2454 0.0000 ( 10722 PWs)   bands (ev):

   -60.1784 -34.5087 -34.2715 -34.2341 -11.5217 -11.3433  -5.0330  -4.1153
    -3.3581  -2.4764  -1.1798  -0.5146   0.1485   2.9293   3.4429   4.5871
     4.8713

          k = 0.5333-0.2309 0.0000 ( 10704 PWs)   bands (ev):

   -60.1782 -34.5065 -34.2711 -34.2385 -11.5125 -11.3375  -5.0046  -4.1378
    -3.3484  -2.4795  -1.1755  -0.6461   0.1881   2.9333   3.4566   4.6162
     4.8044

          k = 0.5417-0.2165 0.0000 ( 10726 PWs)   bands (ev):

   -60.1780 -34.5037 -34.2707 -34.2440 -11.5008 -11.3303  -4.9684  -4.1663
    -3.3364  -2.4813  -1.1719  -0.7934   0.2231   2.9329   3.4777   4.6203
     4.7598

          k = 0.5500-0.2021 0.0000 ( 10698 PWs)   bands (ev):

   -60.1778 -34.5004 -34.2702 -34.2507 -11.4869 -11.3217  -4.9245  -4.2004
    -3.3223  -2.4809  -1.1701  -0.9532   0.2540   2.9257   3.5074   4.5582
     4.7822

          k = 0.5583-0.1876 0.0000 ( 10696 PWs)   bands (ev):

   -60.1775 -34.4964 -34.2696 -34.2583 -11.4711 -11.3119  -4.8732  -4.2393
    -3.3066  -2.4772  -1.1711  -1.1229   0.2819   2.9097   3.5464   4.4654
     4.8389

          k = 0.5667-0.1732 0.0000 ( 10694 PWs)   bands (ev):

   -60.1772 -34.4920 -34.2690 -34.2668 -11.4537 -11.3012  -4.8149  -4.2823
    -3.2896  -2.4694  -1.2999  -1.1759   0.3084   2.8843   3.5943   4.3663
     4.9075

          k = 0.5750-0.1588 0.0000 ( 10690 PWs)   bands (ev):

   -60.1768 -34.4870 -34.2761 -34.2683 -11.4349 -11.2897  -4.7498  -4.3283
    -3.2719  -2.4572  -1.4819  -1.1853   0.3347   2.8498   3.6498   4.2683
     4.9818

          k = 0.5833-0.1443 0.0000 ( 10694 PWs)   bands (ev):

   -60.1765 -34.4815 -34.2861 -34.2676 -11.4152 -11.2777  -4.6784  -4.3763
    -3.2540  -2.4404  -1.6666  -1.1996   0.3623   2.8071   3.7112   4.1750
     5.0585

          k = 0.5917-0.1299 0.0000 ( 10710 PWs)   bands (ev):

   -60.1761 -34.4755 -34.2966 -34.2669 -11.3949 -11.2654  -4.6011  -4.4250
    -3.2367  -2.4189  -1.8515  -1.2191   0.3919   2.7575   3.7766   4.0886
     5.1352

          k = 0.6000-0.1155 0.0000 ( 10702 PWs)   bands (ev):

   -60.1758 -34.4691 -34.3076 -34.2662 -11.3744 -11.2532  -4.5185  -4.4732
    -3.2209  -2.3932  -2.0341  -1.2437   0.4242   2.7025   3.8440   4.0108
     5.2097

          k = 0.6083-0.1010 0.0000 ( 10698 PWs)   bands (ev):

   -60.1754 -34.4624 -34.3187 -34.2655 -11.3544 -11.2413  -4.5196  -4.4313
    -3.2080  -2.3638  -2.2114  -1.2729   0.4593   2.6438   3.9115   3.9425
     5.2799

          k = 0.6167-0.0866 0.0000 ( 10678 PWs)   bands (ev):

   -60.1751 -34.4554 -34.3299 -34.2649 -11.3352 -11.2300  -4.5631  -4.3404
    -3.1999  -2.3796  -2.3317  -1.3059   0.4967   2.5836   3.8844   3.9771
     5.3439

          k = 0.6250-0.0722 0.0000 ( 10678 PWs)   bands (ev):

   -60.1748 -34.4482 -34.3409 -34.2642 -11.3174 -11.2197  -4.6024  -4.2470
    -3.2000  -2.5334  -2.2981  -1.3414   0.5353   2.5242   3.8366   4.0389
     5.4001

          k = 0.6333-0.0577 0.0000 ( 10692 PWs)   bands (ev):

   -60.1745 -34.4409 -34.3515 -34.2637 -11.3015 -11.2106  -4.6364  -4.1529
    -3.2135  -2.6648  -2.2645  -1.3774   0.5733   2.4684   3.7990   4.0945
     5.4471

          k = 0.6417-0.0433 0.0000 ( 10690 PWs)   bands (ev):

   -60.1743 -34.4338 -34.3614 -34.2633 -11.2882 -11.2031  -4.6643  -4.0613
    -3.2463  -2.7643  -2.2332  -1.4115   0.6083   2.4192   3.7713   4.1418
     5.4841

          k = 0.6500-0.0289 0.0000 ( 10698 PWs)   bands (ev):

   -60.1741 -34.4274 -34.3699 -34.2629 -11.2780 -11.1974  -4.6851  -3.9781
    -3.2970  -2.8264  -2.2070  -1.4404   0.6371   2.3802   3.7527   4.1784
     5.5103

          k = 0.6583-0.0144 0.0000 ( 10692 PWs)   bands (ev):

   -60.1740 -34.4226 -34.3760 -34.2627 -11.2715 -11.1938  -4.6981  -3.9149
    -3.3486  -2.8561  -2.1891  -1.4603   0.6566   2.3548   3.7423   4.2019
     5.5258

          k = 0.6667 0.0000 0.0000 ( 10704 PWs)   bands (ev):

   -60.1740 -34.4207 -34.3783 -34.2627 -11.2692 -11.1926  -4.7025  -3.8901
    -3.3716  -2.8641  -2.1826  -1.4675   0.6637   2.3459   3.7392   4.2102
     5.5308

          k = 0.6444 0.0000 0.0000 ( 10700 PWs)   bands (ev):

   -60.1741 -34.4236 -34.3746 -34.2628 -11.2737 -11.1948  -4.6944  -3.9316
    -3.3292  -2.8539  -2.1947  -1.4536   0.6502   2.3623   3.7439   4.1946
     5.5223

          k = 0.6222 0.0000 0.0000 ( 10700 PWs)   bands (ev):

   -60.1743 -34.4297 -34.3658 -34.2632 -11.2877 -11.2020  -4.6692  -4.0235
    -3.2312  -2.8264  -2.2291  -1.4130   0.6103   2.4102   3.7558   4.1468
     5.4988

          k = 0.6000 0.0000 0.0000 ( 10700 PWs)   bands (ev):

   -60.1747 -34.4360 -34.3547 -34.2640 -11.3122 -11.2141  -4.6264  -4.1259
    -3.1207  -2.7790  -2.2795  -1.3507   0.5476   2.4833   3.7711   4.0677
     5.4637

          k = 0.5778 0.0000 0.0000 ( 10686 PWs)   bands (ev):

   -60.1752 -34.4412 -34.3427 -34.2651 -11.3479 -11.2313  -4.5658  -4.2202
    -3.0274  -2.7011  -2.3386  -1.2732   0.4688   2.5721   3.7856   3.9613
     5.4207

          k = 0.5556 0.0000 0.0000 ( 10707 PWs)   bands (ev):

   -60.1760 -34.4446 -34.3302 -34.2666 -11.3950 -11.2536  -4.4874  -4.2989
    -2.9661  -2.5874  -2.4001  -1.1859   0.3811   2.6657   3.7955   3.8345
     5.3736

          k = 0.5333 0.0000 0.0000 ( 10715 PWs)   bands (ev):

   -60.1769 -34.4459 -34.3175 -34.2685 -11.4535 -11.2806  -4.3916  -4.3589
    -2.9324  -2.4595  -2.4480  -1.0929   0.2910   2.7534   3.6962   3.7968
     5.3259

          k = 0.5111 0.0000 0.0000 ( 10711 PWs)   bands (ev):

   -60.1780 -34.4450 -34.3049 -34.2707 -11.5231 -11.3120  -4.3989  -4.2791
    -2.9177  -2.5132  -2.2959  -0.9973   0.2038   2.8242   3.5574   3.7866
     5.2801

          k = 0.4889 0.0000 0.0000 ( 10701 PWs)   bands (ev):

   -60.1793 -34.4417 -34.2923 -34.2733 -11.6030 -11.3475  -4.4194  -4.1509
    -2.9176  -2.5587  -2.1393  -0.9015   0.1235   2.8664   3.4320   3.7631
     5.2371

          k = 0.4667 0.0000 0.0000 ( 10717 PWs)   bands (ev):

   -60.1808 -34.4361 -34.2800 -34.2763 -11.6922 -11.3864  -4.4213  -4.0082
    -2.9303  -2.5940  -1.9828  -0.8074   0.0527   2.8682   3.3356   3.7261
     5.1962

          k = 0.4444 0.0000 0.0000 ( 10737 PWs)   bands (ev):

   -60.1825 -34.4282 -34.2796 -34.2680 -11.7894 -11.4283  -4.4067  -3.8526
    -2.9547  -2.6173  -1.8301  -0.7168  -0.0074   2.8277   3.2759   3.6768
     5.1551

          k = 0.4222 0.0000 0.0000 ( 10735 PWs)   bands (ev):

   -60.1843 -34.4180 -34.2832 -34.2564 -11.8933 -11.4725  -4.3783  -3.6859
    -2.9890  -2.6271  -1.6846  -0.6312  -0.0561   2.7628   3.2420   3.6177
     5.1107

          k = 0.4000 0.0000 0.0000 ( 10739 PWs)   bands (ev):

   -60.1862 -34.4057 -34.2871 -34.2451 -12.0023 -11.5186  -4.3399  -3.5108
    -3.0298  -2.6217  -1.5505  -0.5518  -0.0928   2.6970   3.2178   3.5521
     5.0596

          k = 0.3778 0.0000 0.0000 ( 10737 PWs)   bands (ev):

   -60.1883 -34.3916 -34.2912 -34.2344 -12.1149 -11.5658  -4.2969  -3.3305
    -3.0720  -2.5992  -1.4335  -0.4798  -0.1155   2.6462   3.1950   3.4831
     4.9988

          k = 0.3556 0.0000 0.0000 ( 10743 PWs)   bands (ev):

   -60.1904 -34.3757 -34.2955 -34.2241 -12.2295 -11.6136  -4.2561  -3.1496
    -3.1083  -2.5565  -1.3408  -0.4161  -0.1204   2.6177   3.1719   3.4140
     4.9263

          k = 0.3333 0.0000 0.0000 ( 10759 PWs)   bands (ev):

   -60.1926 -34.3583 -34.3000 -34.2144 -12.3446 -11.6614  -4.2260  -3.1296
    -2.9748  -2.4892  -1.2798  -0.3616  -0.1025   2.6137   3.1509   3.3478
     4.8413

          k = 0.3111 0.0000 0.0000 ( 10773 PWs)   bands (ev):

   -60.1949 -34.3398 -34.3045 -34.2052 -12.4589 -11.7088  -4.2150  -3.1266
    -2.8145  -2.3913  -1.2551  -0.3169  -0.0585   2.6326   3.1356   3.2871
     4.7439

          k = 0.2889 0.0000 0.0000 ( 10775 PWs)   bands (ev):

   -60.1972 -34.3205 -34.3091 -34.1967 -12.5710 -11.7552  -4.2286  -3.0931
    -2.6740  -2.2603  -1.2654  -0.2825   0.0096   2.6707   3.1304   3.2344
     4.6355

          k = 0.2667 0.0000 0.0000 ( 10753 PWs)   bands (ev):

   -60.1995 -34.3136 -34.3006 -34.1887 -12.6797 -11.8001  -4.2666  -3.0289
    -2.5498  -2.1030  -1.3041  -0.2589   0.0949   2.7233   3.1393   3.1919
     4.5180

          k = 0.2444 0.0000 0.0000 ( 10765 PWs)   bands (ev):

   -60.2017 -34.3181 -34.2805 -34.1814 -12.7838 -11.8431  -4.3243  -2.9388
    -2.4330  -1.9319  -1.3625  -0.2465   0.1886   2.7864   3.1612   3.1650
     4.3940

          k = 0.2222 0.0000 0.0000 ( 10765 PWs)   bands (ev):

   -60.2038 -34.3224 -34.2606 -34.1747 -12.8823 -11.8837  -4.3948  -2.8296
    -2.3163  -1.7583  -1.4325  -0.2456   0.2827   2.8578   3.1440   3.2075
     4.2662

          k = 0.2000 0.0000 0.0000 ( 10777 PWs)   bands (ev):

   -60.2059 -34.3265 -34.2413 -34.1687 -12.9742 -11.9217  -4.4719  -2.7084
    -2.1959  -1.5900  -1.5076  -0.2566   0.3706   2.9373   3.1412   3.2640
     4.1379

          k = 0.1778 0.0000 0.0000 ( 10765 PWs)   bands (ev):

   -60.2078 -34.3303 -34.2228 -34.1633 -13.0587 -11.9566  -4.5505  -2.5812
    -2.0704  -1.5830  -1.4323  -0.2800   0.4481   3.0259   3.1530   3.3294
     4.0123

          k = 0.1556 0.0000 0.0000 ( 10763 PWs)   bands (ev):

   -60.2096 -34.3339 -34.2056 -34.1585 -13.1351 -11.9881  -4.6267  -2.4537
    -1.9397  -1.6551  -1.2893  -0.3161   0.5132   3.1238   3.1787   3.3982
     3.8924

          k = 0.1333 0.0000 0.0000 ( 10765 PWs)   bands (ev):

   -60.2112 -34.3370 -34.1900 -34.1544 -13.2026 -12.0159  -4.6975  -2.3307
    -1.8045  -1.7213  -1.1637  -0.3651   0.5651   3.2162   3.2292   3.4656
     3.7815

          k = 0.1111 0.0000 0.0000 ( 10763 PWs)   bands (ev):

   -60.2125 -34.3398 -34.1762 -34.1509 -13.2608 -12.0399  -4.7607  -2.2168
    -1.7798  -1.6664  -1.0570  -0.4271   0.6049   3.2624   3.3379   3.5276
     3.6824

          k = 0.0889 0.0000 0.0000 ( 10769 PWs)   bands (ev):

   -60.2137 -34.3421 -34.1645 -34.1480 -13.3090 -12.0598  -4.8145  -2.1165
    -1.8291  -1.5272  -0.9702  -0.5016   0.6340   3.3123   3.4439   3.5814
     3.5976

          k = 0.0667 0.0000 0.0000 ( 10765 PWs)   bands (ev):

   -60.2146 -34.3439 -34.1552 -34.1458 -13.3469 -12.0755  -4.8576  -2.0336
    -1.8683  -1.3897  -0.9034  -0.5872   0.6542   3.3604   3.5294   3.5395
     3.6250

          k = 0.0444 0.0000 0.0000 ( 10749 PWs)   bands (ev):

   -60.2153 -34.3453 -34.1484 -34.1442 -13.3743 -12.0868  -4.8891  -1.9716
    -1.8968  -1.2587  -0.8562  -0.6803   0.6673   3.4005   3.4794   3.6163
     3.6570

          k = 0.0222 0.0000 0.0000 ( 10755 PWs)   bands (ev):

   -60.2157 -34.3461 -34.1443 -34.1433 -13.3908 -12.0936  -4.9083  -1.9332
    -1.9140  -1.1458  -0.8282  -0.7701   0.6746   3.4270   3.4490   3.6664
     3.6766

          k = 0.0000 0.0000 0.0000 ( 10755 PWs)   bands (ev):

   -60.2158 -34.3463 -34.1430 -34.1429 -13.3963 -12.0959  -4.9147  -1.9205
    -1.9196  -1.0912  -0.8198  -0.8160   0.6769   3.4354   3.4397   3.6826
     3.6844

     Writing output data file ./outdir/MoS2.save/
 
     init_run     :      0.50s CPU      0.60s WALL (       1 calls)
     electrons    :     66.91s CPU     74.41s WALL (       1 calls)

     Called by init_run:
     wfcinit      :      0.00s CPU      0.00s WALL (       1 calls)
     wfcinit:atom :      0.04s CPU      0.05s WALL (     162 calls)
     wfcinit:wfcr :      2.24s CPU      2.48s WALL (     162 calls)
     potinit      :      0.06s CPU      0.11s WALL (       1 calls)
     hinit0       :      0.24s CPU      0.26s WALL (       1 calls)

     Called by electrons:
     c_bands      :     66.91s CPU     74.41s WALL (       1 calls)
     v_of_rho     :      0.05s CPU      0.08s WALL (       1 calls)
     v_h          :      0.00s CPU      0.00s WALL (       1 calls)
     v_xc         :      0.05s CPU      0.07s WALL (       1 calls)
     newd         :      0.14s CPU      0.16s WALL (       1 calls)

     Called by c_bands:
     init_us_2    :      0.05s CPU      0.06s WALL (     162 calls)
     cegterg      :     63.85s CPU     71.08s WALL (     324 calls)

     Called by sum_band:

     Called by *egterg:
     cdiaghg      :      6.06s CPU      9.38s WALL (    5540 calls)
     cegterg:over :      3.44s CPU      3.80s WALL (    5378 calls)
     cegterg:upda :      2.33s CPU      2.43s WALL (    5378 calls)
     cegterg:last :      4.18s CPU      4.47s WALL (    4673 calls)
     cdiaghg:chol :      0.42s CPU      0.49s WALL (    5540 calls)
     cdiaghg:inve :      0.31s CPU      0.37s WALL (    5540 calls)
     cdiaghg:para :      0.68s CPU      0.79s WALL (   11080 calls)
     h_psi        :     47.40s CPU     50.71s WALL (    5864 calls)
     s_psi        :      1.33s CPU      1.38s WALL (    5864 calls)
     g_psi        :      0.46s CPU      0.48s WALL (    5378 calls)

     Called by h_psi:
     h_psi:calbec :      1.51s CPU      1.59s WALL (    5864 calls)
     vloc_psi     :     44.36s CPU     47.52s WALL (    5864 calls)
     add_vuspsi   :      1.34s CPU      1.39s WALL (    5864 calls)

     General routines
     calbec       :      1.49s CPU      1.58s WALL (    5864 calls)
     fft          :      0.04s CPU      0.08s WALL (      23 calls)
     ffts         :      0.00s CPU      0.00s WALL (       2 calls)
     fftw         :     40.16s CPU     43.03s WALL (  169280 calls)
     interpolate  :      0.00s CPU      0.00s WALL (       2 calls)
 
     Parallel routines
     fft_scatt_xy :      5.12s CPU      5.45s WALL (  169305 calls)
     fft_scatt_yz :      9.05s CPU      9.72s WALL (  169305 calls)
 
     PWSCF        :   1m 8.10s CPU   1m17.02s WALL

 
   This run was terminated on:  18: 7:28   7May2021            

=------------------------------------------------------------------------------=
   JOB DONE.
=------------------------------------------------------------------------------=
